   8   8   1   0
  0.2218804E+02  0.5620000E-09  0.5620000E-09  0.5620000E-09  0.5000000E-15
   1.0000000000000000E-004
  CAR 
 unknown system                          
     12.66939164    -15.14039311 1001     -0.45335054      1.00000000
    -15.140  0.0000E+00  0.0000E+00
    -15.113  0.0000E+00  0.0000E+00
    -15.085  0.0000E+00  0.0000E+00
    -15.057  0.0000E+00  0.0000E+00
    -15.029  0.0000E+00  0.0000E+00
    -15.001  0.0000E+00  0.0000E+00
    -14.974  0.0000E+00  0.0000E+00
    -14.946  0.0000E+00  0.0000E+00
    -14.918  0.0000E+00  0.0000E+00
    -14.890  0.0000E+00  0.0000E+00
    -14.862  0.0000E+00  0.0000E+00
    -14.834  0.0000E+00  0.0000E+00
    -14.807  0.0000E+00  0.0000E+00
    -14.779  0.0000E+00  0.0000E+00
    -14.751  0.0000E+00  0.0000E+00
    -14.723  0.0000E+00  0.0000E+00
    -14.695  0.0000E+00  0.0000E+00
    -14.668  0.0000E+00  0.0000E+00
    -14.640  0.0000E+00  0.0000E+00
    -14.612  0.0000E+00  0.0000E+00
    -14.584  0.0000E+00  0.0000E+00
    -14.556  0.0000E+00  0.0000E+00
    -14.529  0.0000E+00  0.0000E+00
    -14.501  0.0000E+00  0.0000E+00
    -14.473  0.0000E+00  0.0000E+00
    -14.445  0.0000E+00  0.0000E+00
    -14.417  0.0000E+00  0.0000E+00
    -14.390  0.0000E+00  0.0000E+00
    -14.362  0.0000E+00  0.0000E+00
    -14.334  0.0000E+00  0.0000E+00
    -14.306  0.0000E+00  0.0000E+00
    -14.278  0.0000E+00  0.0000E+00
    -14.250  0.0000E+00  0.0000E+00
    -14.223  0.0000E+00  0.0000E+00
    -14.195  0.0000E+00  0.0000E+00
    -14.167  0.0000E+00  0.0000E+00
    -14.139  0.0000E+00  0.0000E+00
    -14.111  0.0000E+00  0.0000E+00
    -14.084  0.0000E+00  0.0000E+00
    -14.056  0.0000E+00  0.0000E+00
    -14.028  0.0000E+00  0.0000E+00
    -14.000  0.0000E+00  0.0000E+00
    -13.972  0.0000E+00  0.0000E+00
    -13.945  0.0000E+00  0.0000E+00
    -13.917  0.0000E+00  0.0000E+00
    -13.889  0.0000E+00  0.0000E+00
    -13.861  0.0000E+00  0.0000E+00
    -13.833  0.0000E+00  0.0000E+00
    -13.806  0.0000E+00  0.0000E+00
    -13.778  0.0000E+00  0.0000E+00
    -13.750  0.0000E+00  0.0000E+00
    -13.722  0.0000E+00  0.0000E+00
    -13.694  0.0000E+00  0.0000E+00
    -13.666  0.0000E+00  0.0000E+00
    -13.639  0.0000E+00  0.0000E+00
    -13.611  0.0000E+00  0.0000E+00
    -13.583  0.0000E+00  0.0000E+00
    -13.555  0.0000E+00  0.0000E+00
    -13.527  0.0000E+00  0.0000E+00
    -13.500  0.0000E+00  0.0000E+00
    -13.472  0.0000E+00  0.0000E+00
    -13.444  0.0000E+00  0.0000E+00
    -13.416  0.0000E+00  0.0000E+00
    -13.388  0.0000E+00  0.0000E+00
    -13.361  0.0000E+00  0.0000E+00
    -13.333  0.0000E+00  0.0000E+00
    -13.305  0.0000E+00  0.0000E+00
    -13.277  0.0000E+00  0.0000E+00
    -13.249  0.0000E+00  0.0000E+00
    -13.222  0.0000E+00  0.0000E+00
    -13.194  0.0000E+00  0.0000E+00
    -13.166  0.0000E+00  0.0000E+00
    -13.138  0.4101E-02  0.3150E-05
    -13.110  0.5952E+00  0.6505E-02
    -13.082  0.1733E+01  0.3779E-01
    -13.055  0.3062E+01  0.1045E+00
    -13.027  0.4489E+01  0.2092E+00
    -12.999  0.6181E+01  0.3569E+00
    -12.971  0.8168E+01  0.5557E+00
    -12.943  0.1055E+02  0.8149E+00
    -12.916  0.1619E+02  0.1173E+01
    -12.888  0.2540E+02  0.1750E+01
    -12.860  0.3599E+02  0.2612E+01
    -12.832  0.2713E+02  0.3554E+01
    -12.804  0.3947E+02  0.4422E+01
    -12.777  0.5194E+02  0.5729E+01
    -12.749  0.7131E+02  0.7383E+01
    -12.721  0.0000E+00  0.8000E+01
    -12.693  0.0000E+00  0.8000E+01
    -12.665  0.0000E+00  0.8000E+01
    -12.638  0.0000E+00  0.8000E+01
    -12.610  0.0000E+00  0.8000E+01
    -12.582  0.0000E+00  0.8000E+01
    -12.554  0.0000E+00  0.8000E+01
    -12.526  0.0000E+00  0.8000E+01
    -12.498  0.0000E+00  0.8000E+01
    -12.471  0.0000E+00  0.8000E+01
    -12.443  0.0000E+00  0.8000E+01
    -12.415  0.0000E+00  0.8000E+01
    -12.387  0.0000E+00  0.8000E+01
    -12.359  0.0000E+00  0.8000E+01
    -12.332  0.0000E+00  0.8000E+01
    -12.304  0.0000E+00  0.8000E+01
    -12.276  0.0000E+00  0.8000E+01
    -12.248  0.0000E+00  0.8000E+01
    -12.220  0.0000E+00  0.8000E+01
    -12.193  0.0000E+00  0.8000E+01
    -12.165  0.0000E+00  0.8000E+01
    -12.137  0.0000E+00  0.8000E+01
    -12.109  0.0000E+00  0.8000E+01
    -12.081  0.0000E+00  0.8000E+01
    -12.054  0.0000E+00  0.8000E+01
    -12.026  0.0000E+00  0.8000E+01
    -11.998  0.0000E+00  0.8000E+01
    -11.970  0.0000E+00  0.8000E+01
    -11.942  0.0000E+00  0.8000E+01
    -11.914  0.0000E+00  0.8000E+01
    -11.887  0.0000E+00  0.8000E+01
    -11.859  0.0000E+00  0.8000E+01
    -11.831  0.0000E+00  0.8000E+01
    -11.803  0.0000E+00  0.8000E+01
    -11.775  0.0000E+00  0.8000E+01
    -11.748  0.0000E+00  0.8000E+01
    -11.720  0.0000E+00  0.8000E+01
    -11.692  0.0000E+00  0.8000E+01
    -11.664  0.0000E+00  0.8000E+01
    -11.636  0.0000E+00  0.8000E+01
    -11.609  0.0000E+00  0.8000E+01
    -11.581  0.0000E+00  0.8000E+01
    -11.553  0.0000E+00  0.8000E+01
    -11.525  0.0000E+00  0.8000E+01
    -11.497  0.0000E+00  0.8000E+01
    -11.470  0.0000E+00  0.8000E+01
    -11.442  0.0000E+00  0.8000E+01
    -11.414  0.0000E+00  0.8000E+01
    -11.386  0.0000E+00  0.8000E+01
    -11.358  0.0000E+00  0.8000E+01
    -11.330  0.0000E+00  0.8000E+01
    -11.303  0.0000E+00  0.8000E+01
    -11.275  0.0000E+00  0.8000E+01
    -11.247  0.0000E+00  0.8000E+01
    -11.219  0.0000E+00  0.8000E+01
    -11.191  0.0000E+00  0.8000E+01
    -11.164  0.0000E+00  0.8000E+01
    -11.136  0.0000E+00  0.8000E+01
    -11.108  0.0000E+00  0.8000E+01
    -11.080  0.0000E+00  0.8000E+01
    -11.052  0.0000E+00  0.8000E+01
    -11.025  0.0000E+00  0.8000E+01
    -10.997  0.0000E+00  0.8000E+01
    -10.969  0.0000E+00  0.8000E+01
    -10.941  0.0000E+00  0.8000E+01
    -10.913  0.0000E+00  0.8000E+01
    -10.885  0.0000E+00  0.8000E+01
    -10.858  0.0000E+00  0.8000E+01
    -10.830  0.0000E+00  0.8000E+01
    -10.802  0.0000E+00  0.8000E+01
    -10.774  0.0000E+00  0.8000E+01
    -10.746  0.0000E+00  0.8000E+01
    -10.719  0.0000E+00  0.8000E+01
    -10.691  0.0000E+00  0.8000E+01
    -10.663  0.0000E+00  0.8000E+01
    -10.635  0.0000E+00  0.8000E+01
    -10.607  0.0000E+00  0.8000E+01
    -10.580  0.0000E+00  0.8000E+01
    -10.552  0.0000E+00  0.8000E+01
    -10.524  0.0000E+00  0.8000E+01
    -10.496  0.0000E+00  0.8000E+01
    -10.468  0.0000E+00  0.8000E+01
    -10.441  0.0000E+00  0.8000E+01
    -10.413  0.0000E+00  0.8000E+01
    -10.385  0.0000E+00  0.8000E+01
    -10.357  0.0000E+00  0.8000E+01
    -10.329  0.0000E+00  0.8000E+01
    -10.301  0.0000E+00  0.8000E+01
    -10.274  0.0000E+00  0.8000E+01
    -10.246  0.0000E+00  0.8000E+01
    -10.218  0.0000E+00  0.8000E+01
    -10.190  0.0000E+00  0.8000E+01
    -10.162  0.0000E+00  0.8000E+01
    -10.135  0.0000E+00  0.8000E+01
    -10.107  0.0000E+00  0.8000E+01
    -10.079  0.0000E+00  0.8000E+01
    -10.051  0.0000E+00  0.8000E+01
    -10.023  0.0000E+00  0.8000E+01
     -9.996  0.0000E+00  0.8000E+01
     -9.968  0.0000E+00  0.8000E+01
     -9.940  0.0000E+00  0.8000E+01
     -9.912  0.0000E+00  0.8000E+01
     -9.884  0.0000E+00  0.8000E+01
     -9.857  0.0000E+00  0.8000E+01
     -9.829  0.0000E+00  0.8000E+01
     -9.801  0.0000E+00  0.8000E+01
     -9.773  0.0000E+00  0.8000E+01
     -9.745  0.0000E+00  0.8000E+01
     -9.717  0.0000E+00  0.8000E+01
     -9.690  0.0000E+00  0.8000E+01
     -9.662  0.0000E+00  0.8000E+01
     -9.634  0.0000E+00  0.8000E+01
     -9.606  0.0000E+00  0.8000E+01
     -9.578  0.0000E+00  0.8000E+01
     -9.551  0.0000E+00  0.8000E+01
     -9.523  0.0000E+00  0.8000E+01
     -9.495  0.0000E+00  0.8000E+01
     -9.467  0.0000E+00  0.8000E+01
     -9.439  0.0000E+00  0.8000E+01
     -9.412  0.0000E+00  0.8000E+01
     -9.384  0.0000E+00  0.8000E+01
     -9.356  0.0000E+00  0.8000E+01
     -9.328  0.0000E+00  0.8000E+01
     -9.300  0.0000E+00  0.8000E+01
     -9.273  0.0000E+00  0.8000E+01
     -9.245  0.0000E+00  0.8000E+01
     -9.217  0.0000E+00  0.8000E+01
     -9.189  0.0000E+00  0.8000E+01
     -9.161  0.0000E+00  0.8000E+01
     -9.133  0.0000E+00  0.8000E+01
     -9.106  0.0000E+00  0.8000E+01
     -9.078  0.0000E+00  0.8000E+01
     -9.050  0.0000E+00  0.8000E+01
     -9.022  0.0000E+00  0.8000E+01
     -8.994  0.0000E+00  0.8000E+01
     -8.967  0.0000E+00  0.8000E+01
     -8.939  0.0000E+00  0.8000E+01
     -8.911  0.0000E+00  0.8000E+01
     -8.883  0.0000E+00  0.8000E+01
     -8.855  0.0000E+00  0.8000E+01
     -8.828  0.0000E+00  0.8000E+01
     -8.800  0.0000E+00  0.8000E+01
     -8.772  0.0000E+00  0.8000E+01
     -8.744  0.0000E+00  0.8000E+01
     -8.716  0.0000E+00  0.8000E+01
     -8.689  0.0000E+00  0.8000E+01
     -8.661  0.0000E+00  0.8000E+01
     -8.633  0.0000E+00  0.8000E+01
     -8.605  0.0000E+00  0.8000E+01
     -8.577  0.0000E+00  0.8000E+01
     -8.549  0.0000E+00  0.8000E+01
     -8.522  0.0000E+00  0.8000E+01
     -8.494  0.0000E+00  0.8000E+01
     -8.466  0.0000E+00  0.8000E+01
     -8.438  0.0000E+00  0.8000E+01
     -8.410  0.0000E+00  0.8000E+01
     -8.383  0.0000E+00  0.8000E+01
     -8.355  0.0000E+00  0.8000E+01
     -8.327  0.0000E+00  0.8000E+01
     -8.299  0.0000E+00  0.8000E+01
     -8.271  0.0000E+00  0.8000E+01
     -8.244  0.0000E+00  0.8000E+01
     -8.216  0.0000E+00  0.8000E+01
     -8.188  0.0000E+00  0.8000E+01
     -8.160  0.0000E+00  0.8000E+01
     -8.132  0.0000E+00  0.8000E+01
     -8.105  0.0000E+00  0.8000E+01
     -8.077  0.0000E+00  0.8000E+01
     -8.049  0.0000E+00  0.8000E+01
     -8.021  0.0000E+00  0.8000E+01
     -7.993  0.0000E+00  0.8000E+01
     -7.965  0.0000E+00  0.8000E+01
     -7.938  0.0000E+00  0.8000E+01
     -7.910  0.0000E+00  0.8000E+01
     -7.882  0.0000E+00  0.8000E+01
     -7.854  0.0000E+00  0.8000E+01
     -7.826  0.0000E+00  0.8000E+01
     -7.799  0.0000E+00  0.8000E+01
     -7.771  0.0000E+00  0.8000E+01
     -7.743  0.0000E+00  0.8000E+01
     -7.715  0.0000E+00  0.8000E+01
     -7.687  0.0000E+00  0.8000E+01
     -7.660  0.0000E+00  0.8000E+01
     -7.632  0.0000E+00  0.8000E+01
     -7.604  0.0000E+00  0.8000E+01
     -7.576  0.0000E+00  0.8000E+01
     -7.548  0.0000E+00  0.8000E+01
     -7.521  0.0000E+00  0.8000E+01
     -7.493  0.0000E+00  0.8000E+01
     -7.465  0.0000E+00  0.8000E+01
     -7.437  0.0000E+00  0.8000E+01
     -7.409  0.0000E+00  0.8000E+01
     -7.381  0.0000E+00  0.8000E+01
     -7.354  0.0000E+00  0.8000E+01
     -7.326  0.0000E+00  0.8000E+01
     -7.298  0.0000E+00  0.8000E+01
     -7.270  0.0000E+00  0.8000E+01
     -7.242  0.0000E+00  0.8000E+01
     -7.215  0.0000E+00  0.8000E+01
     -7.187  0.0000E+00  0.8000E+01
     -7.159  0.0000E+00  0.8000E+01
     -7.131  0.0000E+00  0.8000E+01
     -7.103  0.0000E+00  0.8000E+01
     -7.076  0.0000E+00  0.8000E+01
     -7.048  0.0000E+00  0.8000E+01
     -7.020  0.0000E+00  0.8000E+01
     -6.992  0.0000E+00  0.8000E+01
     -6.964  0.0000E+00  0.8000E+01
     -6.937  0.0000E+00  0.8000E+01
     -6.909  0.0000E+00  0.8000E+01
     -6.881  0.0000E+00  0.8000E+01
     -6.853  0.0000E+00  0.8000E+01
     -6.825  0.0000E+00  0.8000E+01
     -6.797  0.0000E+00  0.8000E+01
     -6.770  0.0000E+00  0.8000E+01
     -6.742  0.0000E+00  0.8000E+01
     -6.714  0.0000E+00  0.8000E+01
     -6.686  0.0000E+00  0.8000E+01
     -6.658  0.0000E+00  0.8000E+01
     -6.631  0.0000E+00  0.8000E+01
     -6.603  0.0000E+00  0.8000E+01
     -6.575  0.0000E+00  0.8000E+01
     -6.547  0.0000E+00  0.8000E+01
     -6.519  0.0000E+00  0.8000E+01
     -6.492  0.0000E+00  0.8000E+01
     -6.464  0.0000E+00  0.8000E+01
     -6.436  0.0000E+00  0.8000E+01
     -6.408  0.0000E+00  0.8000E+01
     -6.380  0.0000E+00  0.8000E+01
     -6.353  0.0000E+00  0.8000E+01
     -6.325  0.0000E+00  0.8000E+01
     -6.297  0.0000E+00  0.8000E+01
     -6.269  0.0000E+00  0.8000E+01
     -6.241  0.0000E+00  0.8000E+01
     -6.213  0.0000E+00  0.8000E+01
     -6.186  0.0000E+00  0.8000E+01
     -6.158  0.0000E+00  0.8000E+01
     -6.130  0.0000E+00  0.8000E+01
     -6.102  0.0000E+00  0.8000E+01
     -6.074  0.0000E+00  0.8000E+01
     -6.047  0.0000E+00  0.8000E+01
     -6.019  0.0000E+00  0.8000E+01
     -5.991  0.0000E+00  0.8000E+01
     -5.963  0.0000E+00  0.8000E+01
     -5.935  0.0000E+00  0.8000E+01
     -5.908  0.0000E+00  0.8000E+01
     -5.880  0.0000E+00  0.8000E+01
     -5.852  0.0000E+00  0.8000E+01
     -5.824  0.0000E+00  0.8000E+01
     -5.796  0.0000E+00  0.8000E+01
     -5.768  0.0000E+00  0.8000E+01
     -5.741  0.0000E+00  0.8000E+01
     -5.713  0.0000E+00  0.8000E+01
     -5.685  0.0000E+00  0.8000E+01
     -5.657  0.0000E+00  0.8000E+01
     -5.629  0.0000E+00  0.8000E+01
     -5.602  0.0000E+00  0.8000E+01
     -5.574  0.0000E+00  0.8000E+01
     -5.546  0.0000E+00  0.8000E+01
     -5.518  0.0000E+00  0.8000E+01
     -5.490  0.0000E+00  0.8000E+01
     -5.463  0.0000E+00  0.8000E+01
     -5.435  0.0000E+00  0.8000E+01
     -5.407  0.0000E+00  0.8000E+01
     -5.379  0.0000E+00  0.8000E+01
     -5.351  0.0000E+00  0.8000E+01
     -5.324  0.0000E+00  0.8000E+01
     -5.296  0.0000E+00  0.8000E+01
     -5.268  0.0000E+00  0.8000E+01
     -5.240  0.0000E+00  0.8000E+01
     -5.212  0.0000E+00  0.8000E+01
     -5.184  0.0000E+00  0.8000E+01
     -5.157  0.0000E+00  0.8000E+01
     -5.129  0.0000E+00  0.8000E+01
     -5.101  0.0000E+00  0.8000E+01
     -5.073  0.0000E+00  0.8000E+01
     -5.045  0.0000E+00  0.8000E+01
     -5.018  0.0000E+00  0.8000E+01
     -4.990  0.0000E+00  0.8000E+01
     -4.962  0.0000E+00  0.8000E+01
     -4.934  0.0000E+00  0.8000E+01
     -4.906  0.0000E+00  0.8000E+01
     -4.879  0.0000E+00  0.8000E+01
     -4.851  0.0000E+00  0.8000E+01
     -4.823  0.0000E+00  0.8000E+01
     -4.795  0.0000E+00  0.8000E+01
     -4.767  0.0000E+00  0.8000E+01
     -4.740  0.0000E+00  0.8000E+01
     -4.712  0.0000E+00  0.8000E+01
     -4.684  0.0000E+00  0.8000E+01
     -4.656  0.0000E+00  0.8000E+01
     -4.628  0.0000E+00  0.8000E+01
     -4.600  0.0000E+00  0.8000E+01
     -4.573  0.0000E+00  0.8000E+01
     -4.545  0.0000E+00  0.8000E+01
     -4.517  0.0000E+00  0.8000E+01
     -4.489  0.0000E+00  0.8000E+01
     -4.461  0.0000E+00  0.8000E+01
     -4.434  0.0000E+00  0.8000E+01
     -4.406  0.0000E+00  0.8000E+01
     -4.378  0.0000E+00  0.8000E+01
     -4.350  0.0000E+00  0.8000E+01
     -4.322  0.0000E+00  0.8000E+01
     -4.295  0.0000E+00  0.8000E+01
     -4.267  0.0000E+00  0.8000E+01
     -4.239  0.0000E+00  0.8000E+01
     -4.211  0.0000E+00  0.8000E+01
     -4.183  0.0000E+00  0.8000E+01
     -4.156  0.0000E+00  0.8000E+01
     -4.128  0.0000E+00  0.8000E+01
     -4.100  0.0000E+00  0.8000E+01
     -4.072  0.0000E+00  0.8000E+01
     -4.044  0.0000E+00  0.8000E+01
     -4.016  0.0000E+00  0.8000E+01
     -3.989  0.0000E+00  0.8000E+01
     -3.961  0.0000E+00  0.8000E+01
     -3.933  0.0000E+00  0.8000E+01
     -3.905  0.0000E+00  0.8000E+01
     -3.877  0.0000E+00  0.8000E+01
     -3.850  0.0000E+00  0.8000E+01
     -3.822  0.0000E+00  0.8000E+01
     -3.794  0.0000E+00  0.8000E+01
     -3.766  0.0000E+00  0.8000E+01
     -3.738  0.0000E+00  0.8000E+01
     -3.711  0.0000E+00  0.8000E+01
     -3.683  0.0000E+00  0.8000E+01
     -3.655  0.0000E+00  0.8000E+01
     -3.627  0.0000E+00  0.8000E+01
     -3.599  0.0000E+00  0.8000E+01
     -3.572  0.0000E+00  0.8000E+01
     -3.544  0.0000E+00  0.8000E+01
     -3.516  0.0000E+00  0.8000E+01
     -3.488  0.0000E+00  0.8000E+01
     -3.460  0.0000E+00  0.8000E+01
     -3.432  0.0000E+00  0.8000E+01
     -3.405  0.0000E+00  0.8000E+01
     -3.377  0.0000E+00  0.8000E+01
     -3.349  0.0000E+00  0.8000E+01
     -3.321  0.0000E+00  0.8000E+01
     -3.293  0.0000E+00  0.8000E+01
     -3.266  0.0000E+00  0.8000E+01
     -3.238  0.0000E+00  0.8000E+01
     -3.210  0.0000E+00  0.8000E+01
     -3.182  0.0000E+00  0.8000E+01
     -3.154  0.0000E+00  0.8000E+01
     -3.127  0.0000E+00  0.8000E+01
     -3.099  0.0000E+00  0.8000E+01
     -3.071  0.0000E+00  0.8000E+01
     -3.043  0.0000E+00  0.8000E+01
     -3.015  0.0000E+00  0.8000E+01
     -2.988  0.0000E+00  0.8000E+01
     -2.960  0.0000E+00  0.8000E+01
     -2.932  0.0000E+00  0.8000E+01
     -2.904  0.0000E+00  0.8000E+01
     -2.876  0.0000E+00  0.8000E+01
     -2.848  0.0000E+00  0.8000E+01
     -2.821  0.0000E+00  0.8000E+01
     -2.793  0.0000E+00  0.8000E+01
     -2.765  0.0000E+00  0.8000E+01
     -2.737  0.0000E+00  0.8000E+01
     -2.709  0.0000E+00  0.8000E+01
     -2.682  0.0000E+00  0.8000E+01
     -2.654  0.0000E+00  0.8000E+01
     -2.626  0.0000E+00  0.8000E+01
     -2.598  0.0000E+00  0.8000E+01
     -2.570  0.0000E+00  0.8000E+01
     -2.543  0.0000E+00  0.8000E+01
     -2.515  0.0000E+00  0.8000E+01
     -2.487  0.0000E+00  0.8000E+01
     -2.459  0.0000E+00  0.8000E+01
     -2.431  0.0000E+00  0.8000E+01
     -2.404  0.1869E-01  0.8000E+01
     -2.376  0.2039E+00  0.8003E+01
     -2.348  0.5672E+00  0.8013E+01
     -2.320  0.1038E+01  0.8035E+01
     -2.292  0.1611E+01  0.8072E+01
     -2.264  0.2285E+01  0.8126E+01
     -2.237  0.3062E+01  0.8200E+01
     -2.209  0.3997E+01  0.8298E+01
     -2.181  0.5095E+01  0.8424E+01
     -2.153  0.6451E+01  0.8583E+01
     -2.125  0.8792E+01  0.8791E+01
     -2.098  0.1162E+02  0.9075E+01
     -2.070  0.1449E+02  0.9438E+01
     -2.042  0.1747E+02  0.9881E+01
     -2.014  0.2305E+02  0.1045E+02
     -1.986  0.2402E+02  0.1112E+02
     -1.959  0.2420E+02  0.1179E+02
     -1.931  0.2251E+02  0.1245E+02
     -1.903  0.1967E+02  0.1303E+02
     -1.875  0.1560E+02  0.1353E+02
     -1.847  0.1375E+02  0.1394E+02
     -1.820  0.1192E+02  0.1429E+02
     -1.792  0.1006E+02  0.1460E+02
     -1.764  0.7988E+01  0.1485E+02
     -1.736  0.5988E+01  0.1504E+02
     -1.708  0.4494E+01  0.1519E+02
     -1.680  0.3546E+01  0.1530E+02
     -1.653  0.3034E+01  0.1539E+02
     -1.625  0.2705E+01  0.1547E+02
     -1.597  0.2423E+01  0.1554E+02
     -1.569  0.2947E+01  0.1561E+02
     -1.541  0.4417E+01  0.1571E+02
     -1.514  0.6109E+01  0.1586E+02
     -1.486  0.7743E+01  0.1605E+02
     -1.458  0.8686E+01  0.1628E+02
     -1.430  0.9466E+01  0.1654E+02
     -1.402  0.1020E+02  0.1681E+02
     -1.375  0.1084E+02  0.1710E+02
     -1.347  0.1135E+02  0.1741E+02
     -1.319  0.1165E+02  0.1773E+02
     -1.291  0.1172E+02  0.1806E+02
     -1.263  0.1145E+02  0.1838E+02
     -1.236  0.1124E+02  0.1869E+02
     -1.208  0.1143E+02  0.1901E+02
     -1.180  0.1206E+02  0.1933E+02
     -1.152  0.1373E+02  0.1969E+02
     -1.124  0.1541E+02  0.2010E+02
     -1.096  0.1653E+02  0.2054E+02
     -1.069  0.1812E+02  0.2102E+02
     -1.041  0.2012E+02  0.2155E+02
     -1.013  0.2200E+02  0.2214E+02
     -0.985  0.2376E+02  0.2278E+02
     -0.957  0.2095E+02  0.2340E+02
     -0.930  0.2222E+02  0.2400E+02
     -0.902  0.2404E+02  0.2464E+02
     -0.874  0.2531E+02  0.2533E+02
     -0.846  0.2403E+02  0.2602E+02
     -0.818  0.2149E+02  0.2666E+02
     -0.791  0.1752E+02  0.2720E+02
     -0.763  0.1924E+02  0.2769E+02
     -0.735  0.3911E+02  0.2847E+02
     -0.707  0.3500E+02  0.2986E+02
     -0.679  0.1977E+02  0.3057E+02
     -0.651  0.1447E+02  0.3104E+02
     -0.624  0.1047E+02  0.3138E+02
     -0.596  0.7478E+01  0.3163E+02
     -0.568  0.5160E+01  0.3181E+02
     -0.540  0.3047E+01  0.3192E+02
     -0.512  0.1246E+01  0.3198E+02
     -0.485  0.2662E+00  0.3200E+02
     -0.457  0.0000E+00  0.3200E+02
     -0.429  0.0000E+00  0.3200E+02
     -0.401  0.0000E+00  0.3200E+02
     -0.373  0.0000E+00  0.3200E+02
     -0.346  0.0000E+00  0.3200E+02
     -0.318  0.0000E+00  0.3200E+02
     -0.290  0.0000E+00  0.3200E+02
     -0.262  0.0000E+00  0.3200E+02
     -0.234  0.0000E+00  0.3200E+02
     -0.207  0.0000E+00  0.3200E+02
     -0.179  0.0000E+00  0.3200E+02
     -0.151  0.0000E+00  0.3200E+02
     -0.123  0.0000E+00  0.3200E+02
     -0.095  0.0000E+00  0.3200E+02
     -0.067  0.0000E+00  0.3200E+02
     -0.040  0.0000E+00  0.3200E+02
     -0.012  0.0000E+00  0.3200E+02
      0.016  0.0000E+00  0.3200E+02
      0.044  0.0000E+00  0.3200E+02
      0.072  0.0000E+00  0.3200E+02
      0.099  0.0000E+00  0.3200E+02
      0.127  0.0000E+00  0.3200E+02
      0.155  0.0000E+00  0.3200E+02
      0.183  0.0000E+00  0.3200E+02
      0.211  0.0000E+00  0.3200E+02
      0.238  0.0000E+00  0.3200E+02
      0.266  0.0000E+00  0.3200E+02
      0.294  0.0000E+00  0.3200E+02
      0.322  0.0000E+00  0.3200E+02
      0.350  0.0000E+00  0.3200E+02
      0.377  0.0000E+00  0.3200E+02
      0.405  0.0000E+00  0.3200E+02
      0.433  0.0000E+00  0.3200E+02
      0.461  0.0000E+00  0.3200E+02
      0.489  0.0000E+00  0.3200E+02
      0.517  0.0000E+00  0.3200E+02
      0.544  0.0000E+00  0.3200E+02
      0.572  0.0000E+00  0.3200E+02
      0.600  0.0000E+00  0.3200E+02
      0.628  0.0000E+00  0.3200E+02
      0.656  0.0000E+00  0.3200E+02
      0.683  0.0000E+00  0.3200E+02
      0.711  0.0000E+00  0.3200E+02
      0.739  0.0000E+00  0.3200E+02
      0.767  0.0000E+00  0.3200E+02
      0.795  0.0000E+00  0.3200E+02
      0.822  0.0000E+00  0.3200E+02
      0.850  0.0000E+00  0.3200E+02
      0.878  0.0000E+00  0.3200E+02
      0.906  0.0000E+00  0.3200E+02
      0.934  0.0000E+00  0.3200E+02
      0.961  0.0000E+00  0.3200E+02
      0.989  0.0000E+00  0.3200E+02
      1.017  0.0000E+00  0.3200E+02
      1.045  0.0000E+00  0.3200E+02
      1.073  0.0000E+00  0.3200E+02
      1.101  0.0000E+00  0.3200E+02
      1.128  0.0000E+00  0.3200E+02
      1.156  0.0000E+00  0.3200E+02
      1.184  0.0000E+00  0.3200E+02
      1.212  0.0000E+00  0.3200E+02
      1.240  0.0000E+00  0.3200E+02
      1.267  0.0000E+00  0.3200E+02
      1.295  0.0000E+00  0.3200E+02
      1.323  0.0000E+00  0.3200E+02
      1.351  0.0000E+00  0.3200E+02
      1.379  0.0000E+00  0.3200E+02
      1.406  0.0000E+00  0.3200E+02
      1.434  0.0000E+00  0.3200E+02
      1.462  0.0000E+00  0.3200E+02
      1.490  0.0000E+00  0.3200E+02
      1.518  0.0000E+00  0.3200E+02
      1.545  0.0000E+00  0.3200E+02
      1.573  0.0000E+00  0.3200E+02
      1.601  0.0000E+00  0.3200E+02
      1.629  0.0000E+00  0.3200E+02
      1.657  0.0000E+00  0.3200E+02
      1.685  0.0000E+00  0.3200E+02
      1.712  0.0000E+00  0.3200E+02
      1.740  0.0000E+00  0.3200E+02
      1.768  0.0000E+00  0.3200E+02
      1.796  0.0000E+00  0.3200E+02
      1.824  0.0000E+00  0.3200E+02
      1.851  0.0000E+00  0.3200E+02
      1.879  0.0000E+00  0.3200E+02
      1.907  0.0000E+00  0.3200E+02
      1.935  0.0000E+00  0.3200E+02
      1.963  0.0000E+00  0.3200E+02
      1.990  0.0000E+00  0.3200E+02
      2.018  0.0000E+00  0.3200E+02
      2.046  0.0000E+00  0.3200E+02
      2.074  0.0000E+00  0.3200E+02
      2.102  0.0000E+00  0.3200E+02
      2.129  0.0000E+00  0.3200E+02
      2.157  0.0000E+00  0.3200E+02
      2.185  0.0000E+00  0.3200E+02
      2.213  0.0000E+00  0.3200E+02
      2.241  0.0000E+00  0.3200E+02
      2.269  0.0000E+00  0.3200E+02
      2.296  0.0000E+00  0.3200E+02
      2.324  0.0000E+00  0.3200E+02
      2.352  0.0000E+00  0.3200E+02
      2.380  0.0000E+00  0.3200E+02
      2.408  0.0000E+00  0.3200E+02
      2.435  0.0000E+00  0.3200E+02
      2.463  0.0000E+00  0.3200E+02
      2.491  0.0000E+00  0.3200E+02
      2.519  0.0000E+00  0.3200E+02
      2.547  0.0000E+00  0.3200E+02
      2.574  0.0000E+00  0.3200E+02
      2.602  0.0000E+00  0.3200E+02
      2.630  0.0000E+00  0.3200E+02
      2.658  0.0000E+00  0.3200E+02
      2.686  0.0000E+00  0.3200E+02
      2.713  0.0000E+00  0.3200E+02
      2.741  0.0000E+00  0.3200E+02
      2.769  0.0000E+00  0.3200E+02
      2.797  0.0000E+00  0.3200E+02
      2.825  0.0000E+00  0.3200E+02
      2.853  0.0000E+00  0.3200E+02
      2.880  0.0000E+00  0.3200E+02
      2.908  0.0000E+00  0.3200E+02
      2.936  0.0000E+00  0.3200E+02
      2.964  0.0000E+00  0.3200E+02
      2.992  0.0000E+00  0.3200E+02
      3.019  0.0000E+00  0.3200E+02
      3.047  0.0000E+00  0.3200E+02
      3.075  0.0000E+00  0.3200E+02
      3.103  0.0000E+00  0.3200E+02
      3.131  0.0000E+00  0.3200E+02
      3.158  0.0000E+00  0.3200E+02
      3.186  0.0000E+00  0.3200E+02
      3.214  0.0000E+00  0.3200E+02
      3.242  0.0000E+00  0.3200E+02
      3.270  0.0000E+00  0.3200E+02
      3.297  0.0000E+00  0.3200E+02
      3.325  0.0000E+00  0.3200E+02
      3.353  0.0000E+00  0.3200E+02
      3.381  0.0000E+00  0.3200E+02
      3.409  0.0000E+00  0.3200E+02
      3.437  0.0000E+00  0.3200E+02
      3.464  0.0000E+00  0.3200E+02
      3.492  0.0000E+00  0.3200E+02
      3.520  0.0000E+00  0.3200E+02
      3.548  0.0000E+00  0.3200E+02
      3.576  0.0000E+00  0.3200E+02
      3.603  0.0000E+00  0.3200E+02
      3.631  0.0000E+00  0.3200E+02
      3.659  0.0000E+00  0.3200E+02
      3.687  0.0000E+00  0.3200E+02
      3.715  0.0000E+00  0.3200E+02
      3.742  0.0000E+00  0.3200E+02
      3.770  0.0000E+00  0.3200E+02
      3.798  0.0000E+00  0.3200E+02
      3.826  0.0000E+00  0.3200E+02
      3.854  0.0000E+00  0.3200E+02
      3.881  0.0000E+00  0.3200E+02
      3.909  0.0000E+00  0.3200E+02
      3.937  0.0000E+00  0.3200E+02
      3.965  0.0000E+00  0.3200E+02
      3.993  0.0000E+00  0.3200E+02
      4.021  0.0000E+00  0.3200E+02
      4.048  0.0000E+00  0.3200E+02
      4.076  0.0000E+00  0.3200E+02
      4.104  0.0000E+00  0.3200E+02
      4.132  0.0000E+00  0.3200E+02
      4.160  0.0000E+00  0.3200E+02
      4.187  0.0000E+00  0.3200E+02
      4.215  0.0000E+00  0.3200E+02
      4.243  0.0000E+00  0.3200E+02
      4.271  0.0000E+00  0.3200E+02
      4.299  0.0000E+00  0.3200E+02
      4.326  0.0000E+00  0.3200E+02
      4.354  0.0000E+00  0.3200E+02
      4.382  0.0000E+00  0.3200E+02
      4.410  0.0000E+00  0.3200E+02
      4.438  0.0000E+00  0.3200E+02
      4.466  0.0000E+00  0.3200E+02
      4.493  0.0000E+00  0.3200E+02
      4.521  0.0000E+00  0.3200E+02
      4.549  0.0000E+00  0.3200E+02
      4.577  0.0000E+00  0.3200E+02
      4.605  0.0000E+00  0.3200E+02
      4.632  0.0000E+00  0.3200E+02
      4.660  0.0000E+00  0.3200E+02
      4.688  0.8237E-04  0.3200E+02
      4.716  0.9285E-03  0.3200E+02
      4.744  0.2690E-02  0.3200E+02
      4.771  0.5367E-02  0.3200E+02
      4.799  0.8960E-02  0.3200E+02
      4.827  0.1347E-01  0.3200E+02
      4.855  0.1889E-01  0.3200E+02
      4.883  0.2503E-01  0.3200E+02
      4.910  0.3161E-01  0.3200E+02
      4.938  0.3861E-01  0.3200E+02
      4.966  0.4604E-01  0.3200E+02
      4.994  0.5390E-01  0.3201E+02
      5.022  0.6220E-01  0.3201E+02
      5.050  0.7092E-01  0.3201E+02
      5.077  0.8007E-01  0.3201E+02
      5.105  0.8965E-01  0.3201E+02
      5.133  0.9966E-01  0.3202E+02
      5.161  0.1101E+00  0.3202E+02
      5.189  0.1210E+00  0.3202E+02
      5.216  0.1323E+00  0.3203E+02
      5.244  0.1440E+00  0.3203E+02
      5.272  0.1562E+00  0.3203E+02
      5.300  0.1687E+00  0.3204E+02
      5.328  0.1818E+00  0.3204E+02
      5.355  0.1952E+00  0.3205E+02
      5.383  0.2088E+00  0.3205E+02
      5.411  0.2226E+00  0.3206E+02
      5.439  0.2366E+00  0.3207E+02
      5.467  0.2507E+00  0.3207E+02
      5.494  0.2651E+00  0.3208E+02
      5.522  0.2797E+00  0.3209E+02
      5.550  0.2946E+00  0.3210E+02
      5.578  0.3098E+00  0.3210E+02
      5.606  0.3253E+00  0.3211E+02
      5.634  0.3411E+00  0.3212E+02
      5.661  0.3572E+00  0.3213E+02
      5.689  0.3736E+00  0.3214E+02
      5.717  0.3903E+00  0.3215E+02
      5.745  0.4072E+00  0.3216E+02
      5.773  0.4245E+00  0.3218E+02
      5.800  0.4421E+00  0.3219E+02
      5.828  0.4599E+00  0.3220E+02
      5.856  0.4780E+00  0.3221E+02
      5.884  0.4967E+00  0.3223E+02
      5.912  0.5161E+00  0.3224E+02
      5.939  0.5362E+00  0.3226E+02
      5.967  0.5570E+00  0.3227E+02
      5.995  0.5784E+00  0.3229E+02
      6.023  0.6007E+00  0.3230E+02
      6.051  0.6237E+00  0.3232E+02
      6.078  0.6474E+00  0.3234E+02
      6.106  0.6719E+00  0.3236E+02
      6.134  0.6972E+00  0.3238E+02
      6.162  0.7233E+00  0.3240E+02
      6.190  0.7501E+00  0.3242E+02
      6.218  0.7777E+00  0.3244E+02
      6.245  0.8061E+00  0.3246E+02
      6.273  0.8352E+00  0.3248E+02
      6.301  0.8651E+00  0.3251E+02
      6.329  0.8957E+00  0.3253E+02
      6.357  0.9271E+00  0.3256E+02
      6.384  0.9593E+00  0.3258E+02
      6.412  0.9925E+00  0.3261E+02
      6.440  0.1028E+01  0.3264E+02
      6.468  0.1065E+01  0.3267E+02
      6.496  0.1105E+01  0.3270E+02
      6.523  0.1146E+01  0.3273E+02
      6.551  0.1191E+01  0.3276E+02
      6.579  0.1237E+01  0.3279E+02
      6.607  0.1285E+01  0.3283E+02
      6.635  0.1336E+01  0.3286E+02
      6.662  0.1389E+01  0.3290E+02
      6.690  0.1462E+01  0.3294E+02
      6.718  0.1565E+01  0.3298E+02
      6.746  0.1697E+01  0.3303E+02
      6.774  0.1859E+01  0.3308E+02
      6.802  0.2047E+01  0.3313E+02
      6.829  0.2263E+01  0.3319E+02
      6.857  0.2528E+01  0.3326E+02
      6.885  0.2853E+01  0.3333E+02
      6.913  0.3236E+01  0.3342E+02
      6.941  0.3696E+01  0.3351E+02
      6.968  0.4303E+01  0.3363E+02
      6.996  0.5385E+01  0.3376E+02
      7.024  0.6393E+01  0.3392E+02
      7.052  0.6425E+01  0.3410E+02
      7.080  0.6398E+01  0.3428E+02
      7.107  0.6331E+01  0.3446E+02
      7.135  0.6178E+01  0.3463E+02
      7.163  0.5938E+01  0.3480E+02
      7.191  0.5658E+01  0.3496E+02
      7.219  0.5347E+01  0.3512E+02
      7.246  0.5025E+01  0.3526E+02
      7.274  0.4725E+01  0.3540E+02
      7.302  0.4453E+01  0.3552E+02
      7.330  0.4209E+01  0.3564E+02
      7.358  0.3992E+01  0.3576E+02
      7.386  0.3801E+01  0.3587E+02
      7.413  0.3628E+01  0.3597E+02
      7.441  0.3474E+01  0.3607E+02
      7.469  0.3340E+01  0.3616E+02
      7.497  0.3225E+01  0.3625E+02
      7.525  0.3143E+01  0.3634E+02
      7.552  0.3101E+01  0.3643E+02
      7.580  0.3117E+01  0.3652E+02
      7.608  0.3294E+01  0.3660E+02
      7.636  0.3586E+01  0.3670E+02
      7.664  0.3878E+01  0.3680E+02
      7.691  0.4158E+01  0.3691E+02
      7.719  0.4404E+01  0.3703E+02
      7.747  0.4615E+01  0.3716E+02
      7.775  0.4795E+01  0.3729E+02
      7.803  0.4954E+01  0.3743E+02