   8   8   1   0
  0.2251341E+02  0.5647338E-09  0.5647338E-09  0.5647338E-09  0.5000000E-15
   1.0000000000000000E-004
  CAR 
 unknown system                          
     12.56805793    -15.19539475 1001     -0.53282130      1.00000000
    -15.195  0.0000E+00  0.0000E+00
    -15.168  0.0000E+00  0.0000E+00
    -15.140  0.0000E+00  0.0000E+00
    -15.112  0.0000E+00  0.0000E+00
    -15.084  0.0000E+00  0.0000E+00
    -15.057  0.0000E+00  0.0000E+00
    -15.029  0.0000E+00  0.0000E+00
    -15.001  0.0000E+00  0.0000E+00
    -14.973  0.0000E+00  0.0000E+00
    -14.946  0.0000E+00  0.0000E+00
    -14.918  0.0000E+00  0.0000E+00
    -14.890  0.0000E+00  0.0000E+00
    -14.862  0.0000E+00  0.0000E+00
    -14.834  0.0000E+00  0.0000E+00
    -14.807  0.0000E+00  0.0000E+00
    -14.779  0.0000E+00  0.0000E+00
    -14.751  0.0000E+00  0.0000E+00
    -14.723  0.0000E+00  0.0000E+00
    -14.696  0.0000E+00  0.0000E+00
    -14.668  0.0000E+00  0.0000E+00
    -14.640  0.0000E+00  0.0000E+00
    -14.612  0.0000E+00  0.0000E+00
    -14.585  0.0000E+00  0.0000E+00
    -14.557  0.0000E+00  0.0000E+00
    -14.529  0.0000E+00  0.0000E+00
    -14.501  0.0000E+00  0.0000E+00
    -14.474  0.0000E+00  0.0000E+00
    -14.446  0.0000E+00  0.0000E+00
    -14.418  0.0000E+00  0.0000E+00
    -14.390  0.0000E+00  0.0000E+00
    -14.362  0.0000E+00  0.0000E+00
    -14.335  0.0000E+00  0.0000E+00
    -14.307  0.0000E+00  0.0000E+00
    -14.279  0.0000E+00  0.0000E+00
    -14.251  0.0000E+00  0.0000E+00
    -14.224  0.0000E+00  0.0000E+00
    -14.196  0.0000E+00  0.0000E+00
    -14.168  0.0000E+00  0.0000E+00
    -14.140  0.0000E+00  0.0000E+00
    -14.113  0.0000E+00  0.0000E+00
    -14.085  0.0000E+00  0.0000E+00
    -14.057  0.0000E+00  0.0000E+00
    -14.029  0.0000E+00  0.0000E+00
    -14.002  0.0000E+00  0.0000E+00
    -13.974  0.0000E+00  0.0000E+00
    -13.946  0.0000E+00  0.0000E+00
    -13.918  0.0000E+00  0.0000E+00
    -13.891  0.0000E+00  0.0000E+00
    -13.863  0.0000E+00  0.0000E+00
    -13.835  0.0000E+00  0.0000E+00
    -13.807  0.0000E+00  0.0000E+00
    -13.779  0.0000E+00  0.0000E+00
    -13.752  0.0000E+00  0.0000E+00
    -13.724  0.0000E+00  0.0000E+00
    -13.696  0.0000E+00  0.0000E+00
    -13.668  0.0000E+00  0.0000E+00
    -13.641  0.0000E+00  0.0000E+00
    -13.613  0.0000E+00  0.0000E+00
    -13.585  0.0000E+00  0.0000E+00
    -13.557  0.0000E+00  0.0000E+00
    -13.530  0.0000E+00  0.0000E+00
    -13.502  0.0000E+00  0.0000E+00
    -13.474  0.0000E+00  0.0000E+00
    -13.446  0.0000E+00  0.0000E+00
    -13.419  0.0000E+00  0.0000E+00
    -13.391  0.0000E+00  0.0000E+00
    -13.363  0.0000E+00  0.0000E+00
    -13.335  0.0000E+00  0.0000E+00
    -13.307  0.0000E+00  0.0000E+00
    -13.280  0.0000E+00  0.0000E+00
    -13.252  0.0000E+00  0.0000E+00
    -13.224  0.0000E+00  0.0000E+00
    -13.196  0.0000E+00  0.0000E+00
    -13.169  0.5585E+00  0.4977E-02
    -13.141  0.2321E+01  0.4216E-01
    -13.113  0.4707E+01  0.1420E+00
    -13.085  0.5922E+01  0.2926E+00
    -13.058  0.7079E+01  0.4707E+00
    -13.030  0.9159E+01  0.6947E+00
    -13.002  0.1169E+02  0.9832E+00
    -12.974  0.1439E+02  0.1345E+01
    -12.947  0.2660E+02  0.1915E+01
    -12.919  0.2741E+02  0.2676E+01
    -12.891  0.3097E+02  0.3412E+01
    -12.863  0.6054E+02  0.4590E+01
    -12.836  0.6814E+02  0.6627E+01
    -12.808  0.1350E+00  0.8000E+01
    -12.780  0.0000E+00  0.8000E+01
    -12.752  0.0000E+00  0.8000E+01
    -12.724  0.0000E+00  0.8000E+01
    -12.697  0.0000E+00  0.8000E+01
    -12.669  0.0000E+00  0.8000E+01
    -12.641  0.0000E+00  0.8000E+01
    -12.613  0.0000E+00  0.8000E+01
    -12.586  0.0000E+00  0.8000E+01
    -12.558  0.0000E+00  0.8000E+01
    -12.530  0.0000E+00  0.8000E+01
    -12.502  0.0000E+00  0.8000E+01
    -12.475  0.0000E+00  0.8000E+01
    -12.447  0.0000E+00  0.8000E+01
    -12.419  0.0000E+00  0.8000E+01
    -12.391  0.0000E+00  0.8000E+01
    -12.364  0.0000E+00  0.8000E+01
    -12.336  0.0000E+00  0.8000E+01
    -12.308  0.0000E+00  0.8000E+01
    -12.280  0.0000E+00  0.8000E+01
    -12.252  0.0000E+00  0.8000E+01
    -12.225  0.0000E+00  0.8000E+01
    -12.197  0.0000E+00  0.8000E+01
    -12.169  0.0000E+00  0.8000E+01
    -12.141  0.0000E+00  0.8000E+01
    -12.114  0.0000E+00  0.8000E+01
    -12.086  0.0000E+00  0.8000E+01
    -12.058  0.0000E+00  0.8000E+01
    -12.030  0.0000E+00  0.8000E+01
    -12.003  0.0000E+00  0.8000E+01
    -11.975  0.0000E+00  0.8000E+01
    -11.947  0.0000E+00  0.8000E+01
    -11.919  0.0000E+00  0.8000E+01
    -11.892  0.0000E+00  0.8000E+01
    -11.864  0.0000E+00  0.8000E+01
    -11.836  0.0000E+00  0.8000E+01
    -11.808  0.0000E+00  0.8000E+01
    -11.780  0.0000E+00  0.8000E+01
    -11.753  0.0000E+00  0.8000E+01
    -11.725  0.0000E+00  0.8000E+01
    -11.697  0.0000E+00  0.8000E+01
    -11.669  0.0000E+00  0.8000E+01
    -11.642  0.0000E+00  0.8000E+01
    -11.614  0.0000E+00  0.8000E+01
    -11.586  0.0000E+00  0.8000E+01
    -11.558  0.0000E+00  0.8000E+01
    -11.531  0.0000E+00  0.8000E+01
    -11.503  0.0000E+00  0.8000E+01
    -11.475  0.0000E+00  0.8000E+01
    -11.447  0.0000E+00  0.8000E+01
    -11.420  0.0000E+00  0.8000E+01
    -11.392  0.0000E+00  0.8000E+01
    -11.364  0.0000E+00  0.8000E+01
    -11.336  0.0000E+00  0.8000E+01
    -11.309  0.0000E+00  0.8000E+01
    -11.281  0.0000E+00  0.8000E+01
    -11.253  0.0000E+00  0.8000E+01
    -11.225  0.0000E+00  0.8000E+01
    -11.197  0.0000E+00  0.8000E+01
    -11.170  0.0000E+00  0.8000E+01
    -11.142  0.0000E+00  0.8000E+01
    -11.114  0.0000E+00  0.8000E+01
    -11.086  0.0000E+00  0.8000E+01
    -11.059  0.0000E+00  0.8000E+01
    -11.031  0.0000E+00  0.8000E+01
    -11.003  0.0000E+00  0.8000E+01
    -10.975  0.0000E+00  0.8000E+01
    -10.948  0.0000E+00  0.8000E+01
    -10.920  0.0000E+00  0.8000E+01
    -10.892  0.0000E+00  0.8000E+01
    -10.864  0.0000E+00  0.8000E+01
    -10.837  0.0000E+00  0.8000E+01
    -10.809  0.0000E+00  0.8000E+01
    -10.781  0.0000E+00  0.8000E+01
    -10.753  0.0000E+00  0.8000E+01
    -10.725  0.0000E+00  0.8000E+01
    -10.698  0.0000E+00  0.8000E+01
    -10.670  0.0000E+00  0.8000E+01
    -10.642  0.0000E+00  0.8000E+01
    -10.614  0.0000E+00  0.8000E+01
    -10.587  0.0000E+00  0.8000E+01
    -10.559  0.0000E+00  0.8000E+01
    -10.531  0.0000E+00  0.8000E+01
    -10.503  0.0000E+00  0.8000E+01
    -10.476  0.0000E+00  0.8000E+01
    -10.448  0.0000E+00  0.8000E+01
    -10.420  0.0000E+00  0.8000E+01
    -10.392  0.0000E+00  0.8000E+01
    -10.365  0.0000E+00  0.8000E+01
    -10.337  0.0000E+00  0.8000E+01
    -10.309  0.0000E+00  0.8000E+01
    -10.281  0.0000E+00  0.8000E+01
    -10.254  0.0000E+00  0.8000E+01
    -10.226  0.0000E+00  0.8000E+01
    -10.198  0.0000E+00  0.8000E+01
    -10.170  0.0000E+00  0.8000E+01
    -10.142  0.0000E+00  0.8000E+01
    -10.115  0.0000E+00  0.8000E+01
    -10.087  0.0000E+00  0.8000E+01
    -10.059  0.0000E+00  0.8000E+01
    -10.031  0.0000E+00  0.8000E+01
    -10.004  0.0000E+00  0.8000E+01
     -9.976  0.0000E+00  0.8000E+01
     -9.948  0.0000E+00  0.8000E+01
     -9.920  0.0000E+00  0.8000E+01
     -9.893  0.0000E+00  0.8000E+01
     -9.865  0.0000E+00  0.8000E+01
     -9.837  0.0000E+00  0.8000E+01
     -9.809  0.0000E+00  0.8000E+01
     -9.782  0.0000E+00  0.8000E+01
     -9.754  0.0000E+00  0.8000E+01
     -9.726  0.0000E+00  0.8000E+01
     -9.698  0.0000E+00  0.8000E+01
     -9.670  0.0000E+00  0.8000E+01
     -9.643  0.0000E+00  0.8000E+01
     -9.615  0.0000E+00  0.8000E+01
     -9.587  0.0000E+00  0.8000E+01
     -9.559  0.0000E+00  0.8000E+01
     -9.532  0.0000E+00  0.8000E+01
     -9.504  0.0000E+00  0.8000E+01
     -9.476  0.0000E+00  0.8000E+01
     -9.448  0.0000E+00  0.8000E+01
     -9.421  0.0000E+00  0.8000E+01
     -9.393  0.0000E+00  0.8000E+01
     -9.365  0.0000E+00  0.8000E+01
     -9.337  0.0000E+00  0.8000E+01
     -9.310  0.0000E+00  0.8000E+01
     -9.282  0.0000E+00  0.8000E+01
     -9.254  0.0000E+00  0.8000E+01
     -9.226  0.0000E+00  0.8000E+01
     -9.198  0.0000E+00  0.8000E+01
     -9.171  0.0000E+00  0.8000E+01
     -9.143  0.0000E+00  0.8000E+01
     -9.115  0.0000E+00  0.8000E+01
     -9.087  0.0000E+00  0.8000E+01
     -9.060  0.0000E+00  0.8000E+01
     -9.032  0.0000E+00  0.8000E+01
     -9.004  0.0000E+00  0.8000E+01
     -8.976  0.0000E+00  0.8000E+01
     -8.949  0.0000E+00  0.8000E+01
     -8.921  0.0000E+00  0.8000E+01
     -8.893  0.0000E+00  0.8000E+01
     -8.865  0.0000E+00  0.8000E+01
     -8.838  0.0000E+00  0.8000E+01
     -8.810  0.0000E+00  0.8000E+01
     -8.782  0.0000E+00  0.8000E+01
     -8.754  0.0000E+00  0.8000E+01
     -8.727  0.0000E+00  0.8000E+01
     -8.699  0.0000E+00  0.8000E+01
     -8.671  0.0000E+00  0.8000E+01
     -8.643  0.0000E+00  0.8000E+01
     -8.615  0.0000E+00  0.8000E+01
     -8.588  0.0000E+00  0.8000E+01
     -8.560  0.0000E+00  0.8000E+01
     -8.532  0.0000E+00  0.8000E+01
     -8.504  0.0000E+00  0.8000E+01
     -8.477  0.0000E+00  0.8000E+01
     -8.449  0.0000E+00  0.8000E+01
     -8.421  0.0000E+00  0.8000E+01
     -8.393  0.0000E+00  0.8000E+01
     -8.366  0.0000E+00  0.8000E+01
     -8.338  0.0000E+00  0.8000E+01
     -8.310  0.0000E+00  0.8000E+01
     -8.282  0.0000E+00  0.8000E+01
     -8.255  0.0000E+00  0.8000E+01
     -8.227  0.0000E+00  0.8000E+01
     -8.199  0.0000E+00  0.8000E+01
     -8.171  0.0000E+00  0.8000E+01
     -8.143  0.0000E+00  0.8000E+01
     -8.116  0.0000E+00  0.8000E+01
     -8.088  0.0000E+00  0.8000E+01
     -8.060  0.0000E+00  0.8000E+01
     -8.032  0.0000E+00  0.8000E+01
     -8.005  0.0000E+00  0.8000E+01
     -7.977  0.0000E+00  0.8000E+01
     -7.949  0.0000E+00  0.8000E+01
     -7.921  0.0000E+00  0.8000E+01
     -7.894  0.0000E+00  0.8000E+01
     -7.866  0.0000E+00  0.8000E+01
     -7.838  0.0000E+00  0.8000E+01
     -7.810  0.0000E+00  0.8000E+01
     -7.783  0.0000E+00  0.8000E+01
     -7.755  0.0000E+00  0.8000E+01
     -7.727  0.0000E+00  0.8000E+01
     -7.699  0.0000E+00  0.8000E+01
     -7.671  0.0000E+00  0.8000E+01
     -7.644  0.0000E+00  0.8000E+01
     -7.616  0.0000E+00  0.8000E+01
     -7.588  0.0000E+00  0.8000E+01
     -7.560  0.0000E+00  0.8000E+01
     -7.533  0.0000E+00  0.8000E+01
     -7.505  0.0000E+00  0.8000E+01
     -7.477  0.0000E+00  0.8000E+01
     -7.449  0.0000E+00  0.8000E+01
     -7.422  0.0000E+00  0.8000E+01
     -7.394  0.0000E+00  0.8000E+01
     -7.366  0.0000E+00  0.8000E+01
     -7.338  0.0000E+00  0.8000E+01
     -7.311  0.0000E+00  0.8000E+01
     -7.283  0.0000E+00  0.8000E+01
     -7.255  0.0000E+00  0.8000E+01
     -7.227  0.0000E+00  0.8000E+01
     -7.200  0.0000E+00  0.8000E+01
     -7.172  0.0000E+00  0.8000E+01
     -7.144  0.0000E+00  0.8000E+01
     -7.116  0.0000E+00  0.8000E+01
     -7.088  0.0000E+00  0.8000E+01
     -7.061  0.0000E+00  0.8000E+01
     -7.033  0.0000E+00  0.8000E+01
     -7.005  0.0000E+00  0.8000E+01
     -6.977  0.0000E+00  0.8000E+01
     -6.950  0.0000E+00  0.8000E+01
     -6.922  0.0000E+00  0.8000E+01
     -6.894  0.0000E+00  0.8000E+01
     -6.866  0.0000E+00  0.8000E+01
     -6.839  0.0000E+00  0.8000E+01
     -6.811  0.0000E+00  0.8000E+01
     -6.783  0.0000E+00  0.8000E+01
     -6.755  0.0000E+00  0.8000E+01
     -6.728  0.0000E+00  0.8000E+01
     -6.700  0.0000E+00  0.8000E+01
     -6.672  0.0000E+00  0.8000E+01
     -6.644  0.0000E+00  0.8000E+01
     -6.616  0.0000E+00  0.8000E+01
     -6.589  0.0000E+00  0.8000E+01
     -6.561  0.0000E+00  0.8000E+01
     -6.533  0.0000E+00  0.8000E+01
     -6.505  0.0000E+00  0.8000E+01
     -6.478  0.0000E+00  0.8000E+01
     -6.450  0.0000E+00  0.8000E+01
     -6.422  0.0000E+00  0.8000E+01
     -6.394  0.0000E+00  0.8000E+01
     -6.367  0.0000E+00  0.8000E+01
     -6.339  0.0000E+00  0.8000E+01
     -6.311  0.0000E+00  0.8000E+01
     -6.283  0.0000E+00  0.8000E+01
     -6.256  0.0000E+00  0.8000E+01
     -6.228  0.0000E+00  0.8000E+01
     -6.200  0.0000E+00  0.8000E+01
     -6.172  0.0000E+00  0.8000E+01
     -6.145  0.0000E+00  0.8000E+01
     -6.117  0.0000E+00  0.8000E+01
     -6.089  0.0000E+00  0.8000E+01
     -6.061  0.0000E+00  0.8000E+01
     -6.033  0.0000E+00  0.8000E+01
     -6.006  0.0000E+00  0.8000E+01
     -5.978  0.0000E+00  0.8000E+01
     -5.950  0.0000E+00  0.8000E+01
     -5.922  0.0000E+00  0.8000E+01
     -5.895  0.0000E+00  0.8000E+01
     -5.867  0.0000E+00  0.8000E+01
     -5.839  0.0000E+00  0.8000E+01
     -5.811  0.0000E+00  0.8000E+01
     -5.784  0.0000E+00  0.8000E+01
     -5.756  0.0000E+00  0.8000E+01
     -5.728  0.0000E+00  0.8000E+01
     -5.700  0.0000E+00  0.8000E+01
     -5.673  0.0000E+00  0.8000E+01
     -5.645  0.0000E+00  0.8000E+01
     -5.617  0.0000E+00  0.8000E+01
     -5.589  0.0000E+00  0.8000E+01
     -5.561  0.0000E+00  0.8000E+01
     -5.534  0.0000E+00  0.8000E+01
     -5.506  0.0000E+00  0.8000E+01
     -5.478  0.0000E+00  0.8000E+01
     -5.450  0.0000E+00  0.8000E+01
     -5.423  0.0000E+00  0.8000E+01
     -5.395  0.0000E+00  0.8000E+01
     -5.367  0.0000E+00  0.8000E+01
     -5.339  0.0000E+00  0.8000E+01
     -5.312  0.0000E+00  0.8000E+01
     -5.284  0.0000E+00  0.8000E+01
     -5.256  0.0000E+00  0.8000E+01
     -5.228  0.0000E+00  0.8000E+01
     -5.201  0.0000E+00  0.8000E+01
     -5.173  0.0000E+00  0.8000E+01
     -5.145  0.0000E+00  0.8000E+01
     -5.117  0.0000E+00  0.8000E+01
     -5.089  0.0000E+00  0.8000E+01
     -5.062  0.0000E+00  0.8000E+01
     -5.034  0.0000E+00  0.8000E+01
     -5.006  0.0000E+00  0.8000E+01
     -4.978  0.0000E+00  0.8000E+01
     -4.951  0.0000E+00  0.8000E+01
     -4.923  0.0000E+00  0.8000E+01
     -4.895  0.0000E+00  0.8000E+01
     -4.867  0.0000E+00  0.8000E+01
     -4.840  0.0000E+00  0.8000E+01
     -4.812  0.0000E+00  0.8000E+01
     -4.784  0.0000E+00  0.8000E+01
     -4.756  0.0000E+00  0.8000E+01
     -4.729  0.0000E+00  0.8000E+01
     -4.701  0.0000E+00  0.8000E+01
     -4.673  0.0000E+00  0.8000E+01
     -4.645  0.0000E+00  0.8000E+01
     -4.618  0.0000E+00  0.8000E+01
     -4.590  0.0000E+00  0.8000E+01
     -4.562  0.0000E+00  0.8000E+01
     -4.534  0.0000E+00  0.8000E+01
     -4.506  0.0000E+00  0.8000E+01
     -4.479  0.0000E+00  0.8000E+01
     -4.451  0.0000E+00  0.8000E+01
     -4.423  0.0000E+00  0.8000E+01
     -4.395  0.0000E+00  0.8000E+01
     -4.368  0.0000E+00  0.8000E+01
     -4.340  0.0000E+00  0.8000E+01
     -4.312  0.0000E+00  0.8000E+01
     -4.284  0.0000E+00  0.8000E+01
     -4.257  0.0000E+00  0.8000E+01
     -4.229  0.0000E+00  0.8000E+01
     -4.201  0.0000E+00  0.8000E+01
     -4.173  0.0000E+00  0.8000E+01
     -4.146  0.0000E+00  0.8000E+01
     -4.118  0.0000E+00  0.8000E+01
     -4.090  0.0000E+00  0.8000E+01
     -4.062  0.0000E+00  0.8000E+01
     -4.034  0.0000E+00  0.8000E+01
     -4.007  0.0000E+00  0.8000E+01
     -3.979  0.0000E+00  0.8000E+01
     -3.951  0.0000E+00  0.8000E+01
     -3.923  0.0000E+00  0.8000E+01
     -3.896  0.0000E+00  0.8000E+01
     -3.868  0.0000E+00  0.8000E+01
     -3.840  0.0000E+00  0.8000E+01
     -3.812  0.0000E+00  0.8000E+01
     -3.785  0.0000E+00  0.8000E+01
     -3.757  0.0000E+00  0.8000E+01
     -3.729  0.0000E+00  0.8000E+01
     -3.701  0.0000E+00  0.8000E+01
     -3.674  0.0000E+00  0.8000E+01
     -3.646  0.0000E+00  0.8000E+01
     -3.618  0.0000E+00  0.8000E+01
     -3.590  0.0000E+00  0.8000E+01
     -3.563  0.0000E+00  0.8000E+01
     -3.535  0.0000E+00  0.8000E+01
     -3.507  0.0000E+00  0.8000E+01
     -3.479  0.0000E+00  0.8000E+01
     -3.451  0.0000E+00  0.8000E+01
     -3.424  0.0000E+00  0.8000E+01
     -3.396  0.0000E+00  0.8000E+01
     -3.368  0.0000E+00  0.8000E+01
     -3.340  0.0000E+00  0.8000E+01
     -3.313  0.0000E+00  0.8000E+01
     -3.285  0.0000E+00  0.8000E+01
     -3.257  0.0000E+00  0.8000E+01
     -3.229  0.0000E+00  0.8000E+01
     -3.202  0.0000E+00  0.8000E+01
     -3.174  0.0000E+00  0.8000E+01
     -3.146  0.0000E+00  0.8000E+01
     -3.118  0.0000E+00  0.8000E+01
     -3.091  0.0000E+00  0.8000E+01
     -3.063  0.0000E+00  0.8000E+01
     -3.035  0.0000E+00  0.8000E+01
     -3.007  0.0000E+00  0.8000E+01
     -2.979  0.0000E+00  0.8000E+01
     -2.952  0.0000E+00  0.8000E+01
     -2.924  0.0000E+00  0.8000E+01
     -2.896  0.0000E+00  0.8000E+01
     -2.868  0.0000E+00  0.8000E+01
     -2.841  0.0000E+00  0.8000E+01
     -2.813  0.0000E+00  0.8000E+01
     -2.785  0.0000E+00  0.8000E+01
     -2.757  0.0000E+00  0.8000E+01
     -2.730  0.0000E+00  0.8000E+01
     -2.702  0.0000E+00  0.8000E+01
     -2.674  0.0000E+00  0.8000E+01
     -2.646  0.0000E+00  0.8000E+01
     -2.619  0.0000E+00  0.8000E+01
     -2.591  0.0000E+00  0.8000E+01
     -2.563  0.0000E+00  0.8000E+01
     -2.535  0.0000E+00  0.8000E+01
     -2.507  0.0000E+00  0.8000E+01
     -2.480  0.0000E+00  0.8000E+01
     -2.452  0.5535E-02  0.8000E+01
     -2.424  0.1240E+00  0.8001E+01
     -2.396  0.3966E+00  0.8008E+01
     -2.369  0.8234E+00  0.8025E+01
     -2.341  0.1404E+01  0.8055E+01
     -2.313  0.2140E+01  0.8104E+01
     -2.285  0.3029E+01  0.8176E+01
     -2.258  0.4935E+01  0.8282E+01
     -2.230  0.6859E+01  0.8447E+01
     -2.202  0.8328E+01  0.8658E+01
     -2.174  0.9980E+01  0.8911E+01
     -2.147  0.1296E+02  0.9226E+01
     -2.119  0.1741E+02  0.9644E+01
     -2.091  0.2289E+02  0.1020E+02
     -2.063  0.2928E+02  0.1095E+02
     -2.036  0.2562E+02  0.1172E+02
     -2.008  0.2333E+02  0.1240E+02
     -1.980  0.1938E+02  0.1300E+02
     -1.952  0.1498E+02  0.1347E+02
     -1.924  0.1182E+02  0.1384E+02
     -1.897  0.1023E+02  0.1414E+02
     -1.869  0.8771E+01  0.1441E+02
     -1.841  0.7445E+01  0.1463E+02
     -1.813  0.6252E+01  0.1482E+02
     -1.786  0.5192E+01  0.1498E+02
     -1.758  0.4908E+01  0.1512E+02
     -1.730  0.4553E+01  0.1525E+02
     -1.702  0.4164E+01  0.1537E+02
     -1.675  0.3758E+01  0.1548E+02
     -1.647  0.2542E+01  0.1557E+02
     -1.619  0.3151E+01  0.1564E+02
     -1.591  0.4387E+01  0.1575E+02
     -1.564  0.5367E+01  0.1588E+02
     -1.536  0.6320E+01  0.1605E+02
     -1.508  0.7243E+01  0.1624E+02
     -1.480  0.8138E+01  0.1645E+02
     -1.452  0.9005E+01  0.1669E+02
     -1.425  0.9842E+01  0.1695E+02
     -1.397  0.1065E+02  0.1723E+02
     -1.369  0.1143E+02  0.1754E+02
     -1.341  0.1218E+02  0.1787E+02
     -1.314  0.2181E+02  0.1832E+02
     -1.286  0.1402E+02  0.1877E+02
     -1.258  0.1707E+02  0.1920E+02
     -1.230  0.2185E+02  0.1976E+02
     -1.203  0.1379E+02  0.2021E+02
     -1.175  0.1148E+02  0.2056E+02
     -1.147  0.1104E+02  0.2087E+02
     -1.119  0.1258E+02  0.2119E+02
     -1.092  0.1617E+02  0.2159E+02
     -1.064  0.2673E+02  0.2231E+02
     -1.036  0.3039E+02  0.2307E+02
     -1.008  0.3925E+02  0.2405E+02
     -0.981  0.3607E+02  0.2512E+02
     -0.953  0.2243E+02  0.2594E+02
     -0.925  0.1869E+02  0.2651E+02
     -0.897  0.1516E+02  0.2698E+02
     -0.869  0.1210E+02  0.2736E+02
     -0.842  0.1241E+02  0.2769E+02
     -0.814  0.5192E+02  0.2850E+02
     -0.786  0.2905E+02  0.2965E+02
     -0.758  0.2157E+02  0.3033E+02
     -0.731  0.1568E+02  0.3084E+02
     -0.703  0.1112E+02  0.3121E+02
     -0.675  0.7944E+01  0.3147E+02
     -0.647  0.6816E+01  0.3167E+02
     -0.620  0.6074E+01  0.3191E+02
     -0.592  0.1260E+01  0.3198E+02
     -0.564  0.1556E+00  0.3200E+02
     -0.536  0.0000E+00  0.3200E+02
     -0.509  0.0000E+00  0.3200E+02
     -0.481  0.0000E+00  0.3200E+02
     -0.453  0.0000E+00  0.3200E+02
     -0.425  0.0000E+00  0.3200E+02
     -0.397  0.0000E+00  0.3200E+02
     -0.370  0.0000E+00  0.3200E+02
     -0.342  0.0000E+00  0.3200E+02
     -0.314  0.0000E+00  0.3200E+02
     -0.286  0.0000E+00  0.3200E+02
     -0.259  0.0000E+00  0.3200E+02
     -0.231  0.0000E+00  0.3200E+02
     -0.203  0.0000E+00  0.3200E+02
     -0.175  0.0000E+00  0.3200E+02
     -0.148  0.0000E+00  0.3200E+02
     -0.120  0.0000E+00  0.3200E+02
     -0.092  0.0000E+00  0.3200E+02
     -0.064  0.0000E+00  0.3200E+02
     -0.037  0.0000E+00  0.3200E+02
     -0.009  0.0000E+00  0.3200E+02
      0.019  0.0000E+00  0.3200E+02
      0.047  0.0000E+00  0.3200E+02
      0.075  0.0000E+00  0.3200E+02
      0.102  0.0000E+00  0.3200E+02
      0.130  0.0000E+00  0.3200E+02
      0.158  0.0000E+00  0.3200E+02
      0.186  0.0000E+00  0.3200E+02
      0.213  0.0000E+00  0.3200E+02
      0.241  0.0000E+00  0.3200E+02
      0.269  0.0000E+00  0.3200E+02
      0.297  0.0000E+00  0.3200E+02
      0.324  0.0000E+00  0.3200E+02
      0.352  0.0000E+00  0.3200E+02
      0.380  0.0000E+00  0.3200E+02
      0.408  0.0000E+00  0.3200E+02
      0.435  0.0000E+00  0.3200E+02
      0.463  0.0000E+00  0.3200E+02
      0.491  0.0000E+00  0.3200E+02
      0.519  0.0000E+00  0.3200E+02
      0.546  0.0000E+00  0.3200E+02
      0.574  0.0000E+00  0.3200E+02
      0.602  0.0000E+00  0.3200E+02
      0.630  0.0000E+00  0.3200E+02
      0.658  0.0000E+00  0.3200E+02
      0.685  0.0000E+00  0.3200E+02
      0.713  0.0000E+00  0.3200E+02
      0.741  0.0000E+00  0.3200E+02
      0.769  0.0000E+00  0.3200E+02
      0.796  0.0000E+00  0.3200E+02
      0.824  0.0000E+00  0.3200E+02
      0.852  0.0000E+00  0.3200E+02
      0.880  0.0000E+00  0.3200E+02
      0.907  0.0000E+00  0.3200E+02
      0.935  0.0000E+00  0.3200E+02
      0.963  0.0000E+00  0.3200E+02
      0.991  0.0000E+00  0.3200E+02
      1.018  0.0000E+00  0.3200E+02
      1.046  0.0000E+00  0.3200E+02
      1.074  0.0000E+00  0.3200E+02
      1.102  0.0000E+00  0.3200E+02
      1.130  0.0000E+00  0.3200E+02
      1.157  0.0000E+00  0.3200E+02
      1.185  0.0000E+00  0.3200E+02
      1.213  0.0000E+00  0.3200E+02
      1.241  0.0000E+00  0.3200E+02
      1.268  0.0000E+00  0.3200E+02
      1.296  0.0000E+00  0.3200E+02
      1.324  0.0000E+00  0.3200E+02
      1.352  0.0000E+00  0.3200E+02
      1.379  0.0000E+00  0.3200E+02
      1.407  0.0000E+00  0.3200E+02
      1.435  0.0000E+00  0.3200E+02
      1.463  0.0000E+00  0.3200E+02
      1.490  0.0000E+00  0.3200E+02
      1.518  0.0000E+00  0.3200E+02
      1.546  0.0000E+00  0.3200E+02
      1.574  0.0000E+00  0.3200E+02
      1.601  0.0000E+00  0.3200E+02
      1.629  0.0000E+00  0.3200E+02
      1.657  0.0000E+00  0.3200E+02
      1.685  0.0000E+00  0.3200E+02
      1.713  0.0000E+00  0.3200E+02
      1.740  0.0000E+00  0.3200E+02
      1.768  0.0000E+00  0.3200E+02
      1.796  0.0000E+00  0.3200E+02
      1.824  0.0000E+00  0.3200E+02
      1.851  0.0000E+00  0.3200E+02
      1.879  0.0000E+00  0.3200E+02
      1.907  0.0000E+00  0.3200E+02
      1.935  0.0000E+00  0.3200E+02
      1.962  0.0000E+00  0.3200E+02
      1.990  0.0000E+00  0.3200E+02
      2.018  0.0000E+00  0.3200E+02
      2.046  0.0000E+00  0.3200E+02
      2.073  0.0000E+00  0.3200E+02
      2.101  0.0000E+00  0.3200E+02
      2.129  0.0000E+00  0.3200E+02
      2.157  0.0000E+00  0.3200E+02
      2.185  0.0000E+00  0.3200E+02
      2.212  0.0000E+00  0.3200E+02
      2.240  0.0000E+00  0.3200E+02
      2.268  0.0000E+00  0.3200E+02
      2.296  0.0000E+00  0.3200E+02
      2.323  0.0000E+00  0.3200E+02
      2.351  0.0000E+00  0.3200E+02
      2.379  0.0000E+00  0.3200E+02
      2.407  0.0000E+00  0.3200E+02
      2.434  0.0000E+00  0.3200E+02
      2.462  0.0000E+00  0.3200E+02
      2.490  0.0000E+00  0.3200E+02
      2.518  0.0000E+00  0.3200E+02
      2.545  0.0000E+00  0.3200E+02
      2.573  0.0000E+00  0.3200E+02
      2.601  0.0000E+00  0.3200E+02
      2.629  0.0000E+00  0.3200E+02
      2.657  0.0000E+00  0.3200E+02
      2.684  0.0000E+00  0.3200E+02
      2.712  0.0000E+00  0.3200E+02
      2.740  0.0000E+00  0.3200E+02
      2.768  0.0000E+00  0.3200E+02
      2.795  0.0000E+00  0.3200E+02
      2.823  0.0000E+00  0.3200E+02
      2.851  0.0000E+00  0.3200E+02
      2.879  0.0000E+00  0.3200E+02
      2.906  0.0000E+00  0.3200E+02
      2.934  0.0000E+00  0.3200E+02
      2.962  0.0000E+00  0.3200E+02
      2.990  0.0000E+00  0.3200E+02
      3.017  0.0000E+00  0.3200E+02
      3.045  0.0000E+00  0.3200E+02
      3.073  0.0000E+00  0.3200E+02
      3.101  0.0000E+00  0.3200E+02
      3.128  0.0000E+00  0.3200E+02
      3.156  0.0000E+00  0.3200E+02
      3.184  0.0000E+00  0.3200E+02
      3.212  0.0000E+00  0.3200E+02
      3.240  0.0000E+00  0.3200E+02
      3.267  0.0000E+00  0.3200E+02
      3.295  0.0000E+00  0.3200E+02
      3.323  0.0000E+00  0.3200E+02
      3.351  0.0000E+00  0.3200E+02
      3.378  0.0000E+00  0.3200E+02
      3.406  0.0000E+00  0.3200E+02
      3.434  0.0000E+00  0.3200E+02
      3.462  0.0000E+00  0.3200E+02
      3.489  0.0000E+00  0.3200E+02
      3.517  0.0000E+00  0.3200E+02
      3.545  0.0000E+00  0.3200E+02
      3.573  0.0000E+00  0.3200E+02
      3.600  0.0000E+00  0.3200E+02
      3.628  0.0000E+00  0.3200E+02
      3.656  0.0000E+00  0.3200E+02
      3.684  0.0000E+00  0.3200E+02
      3.712  0.0000E+00  0.3200E+02
      3.739  0.0000E+00  0.3200E+02
      3.767  0.0000E+00  0.3200E+02
      3.795  0.0000E+00  0.3200E+02
      3.823  0.0000E+00  0.3200E+02
      3.850  0.0000E+00  0.3200E+02
      3.878  0.0000E+00  0.3200E+02
      3.906  0.0000E+00  0.3200E+02
      3.934  0.0000E+00  0.3200E+02
      3.961  0.0000E+00  0.3200E+02
      3.989  0.0000E+00  0.3200E+02
      4.017  0.0000E+00  0.3200E+02
      4.045  0.0000E+00  0.3200E+02
      4.072  0.0000E+00  0.3200E+02
      4.100  0.0000E+00  0.3200E+02
      4.128  0.0000E+00  0.3200E+02
      4.156  0.0000E+00  0.3200E+02
      4.183  0.0000E+00  0.3200E+02
      4.211  0.0000E+00  0.3200E+02
      4.239  0.0000E+00  0.3200E+02
      4.267  0.0000E+00  0.3200E+02
      4.295  0.0000E+00  0.3200E+02
      4.322  0.0000E+00  0.3200E+02
      4.350  0.0000E+00  0.3200E+02
      4.378  0.0000E+00  0.3200E+02
      4.406  0.0000E+00  0.3200E+02
      4.433  0.0000E+00  0.3200E+02
      4.461  0.0000E+00  0.3200E+02
      4.489  0.0000E+00  0.3200E+02
      4.517  0.0000E+00  0.3200E+02
      4.544  0.8279E-04  0.3200E+02
      4.572  0.8720E-03  0.3200E+02
      4.600  0.2496E-02  0.3200E+02
      4.628  0.4955E-02  0.3200E+02
      4.655  0.8249E-02  0.3200E+02
      4.683  0.1238E-01  0.3200E+02
      4.711  0.1734E-01  0.3200E+02
      4.739  0.2314E-01  0.3200E+02
      4.767  0.2977E-01  0.3200E+02
      4.794  0.3724E-01  0.3200E+02
      4.822  0.4554E-01  0.3200E+02
      4.850  0.5468E-01  0.3201E+02
      4.878  0.6466E-01  0.3201E+02
      4.905  0.7546E-01  0.3201E+02
      4.933  0.8711E-01  0.3201E+02
      4.961  0.9958E-01  0.3201E+02
      4.989  0.1129E+00  0.3202E+02
      5.016  0.1270E+00  0.3202E+02
      5.044  0.1420E+00  0.3202E+02
      5.072  0.1578E+00  0.3203E+02
      5.100  0.1745E+00  0.3203E+02
      5.127  0.1920E+00  0.3204E+02
      5.155  0.2103E+00  0.3204E+02
      5.183  0.2295E+00  0.3205E+02
      5.211  0.2564E+00  0.3206E+02
      5.239  0.2843E+00  0.3206E+02
      5.266  0.3116E+00  0.3207E+02
      5.294  0.3381E+00  0.3208E+02
      5.322  0.3639E+00  0.3209E+02
      5.350  0.3890E+00  0.3210E+02
      5.377  0.4134E+00  0.3211E+02
      5.405  0.4371E+00  0.3212E+02
      5.433  0.4601E+00  0.3214E+02
      5.461  0.4825E+00  0.3215E+02
      5.488  0.5041E+00  0.3216E+02
      5.516  0.5250E+00  0.3218E+02
      5.544  0.5452E+00  0.3219E+02
      5.572  0.5647E+00  0.3221E+02
      5.599  0.5835E+00  0.3222E+02
      5.627  0.6017E+00  0.3224E+02
      5.655  0.6191E+00  0.3226E+02
      5.683  0.6358E+00  0.3228E+02
      5.710  0.6444E+00  0.3229E+02
      5.738  0.6479E+00  0.3231E+02
      5.766  0.6537E+00  0.3233E+02
      5.794  0.6616E+00  0.3235E+02
      5.822  0.6718E+00  0.3237E+02
      5.849  0.6842E+00  0.3238E+02
      5.877  0.6988E+00  0.3240E+02
      5.905  0.7156E+00  0.3242E+02
      5.933  0.7346E+00  0.3244E+02
      5.960  0.7558E+00  0.3246E+02
      5.988  0.7792E+00  0.3249E+02
      6.016  0.8047E+00  0.3251E+02
      6.044  0.8314E+00  0.3253E+02
      6.071  0.8591E+00  0.3255E+02
      6.099  0.8877E+00  0.3258E+02
      6.127  0.9174E+00  0.3260E+02
      6.155  0.9480E+00  0.3263E+02
      6.182  0.9796E+00  0.3266E+02
      6.210  0.1012E+01  0.3268E+02
      6.238  0.1046E+01  0.3271E+02
      6.266  0.1080E+01  0.3274E+02
      6.294  0.1116E+01  0.3277E+02
      6.321  0.1153E+01  0.3280E+02
      6.349  0.1190E+01  0.3284E+02
      6.377  0.1229E+01  0.3287E+02
      6.405  0.1268E+01  0.3290E+02
      6.432  0.1309E+01  0.3294E+02
      6.460  0.1350E+01  0.3298E+02
      6.488  0.1393E+01  0.3301E+02
      6.516  0.1437E+01  0.3305E+02
      6.543  0.1486E+01  0.3309E+02
      6.571  0.1538E+01  0.3314E+02
      6.599  0.1596E+01  0.3318E+02
      6.627  0.1657E+01  0.3323E+02
      6.654  0.1723E+01  0.3327E+02
      6.682  0.1793E+01  0.3332E+02
      6.710  0.1867E+01  0.3337E+02
      6.738  0.1968E+01  0.3342E+02
      6.765  0.2113E+01  0.3348E+02
      6.793  0.2301E+01  0.3354E+02
      6.821  0.2533E+01  0.3361E+02
      6.849  0.4891E+01  0.3371E+02
      6.877  0.5262E+01  0.3385E+02
      6.904  0.5310E+01  0.3400E+02
      6.932  0.5263E+01  0.3415E+02
      6.960  0.5123E+01  0.3429E+02
      6.988  0.4911E+01  0.3443E+02
      7.015  0.4641E+01  0.3456E+02
      7.043  0.4315E+01  0.3469E+02
      7.071  0.3932E+01  0.3480E+02
      7.099  0.3925E+01  0.3491E+02
      7.126  0.3946E+01  0.3502E+02
      7.154  0.3972E+01  0.3513E+02
      7.182  0.4001E+01  0.3524E+02
      7.210  0.4035E+01  0.3535E+02
      7.237  0.4074E+01  0.3546E+02
      7.265  0.4117E+01  0.3558E+02
      7.293  0.4164E+01  0.3569E+02
      7.321  0.4215E+01  0.3581E+02
      7.349  0.4271E+01  0.3593E+02
      7.376  0.4332E+01  0.3605E+02
      7.404  0.4397E+01  0.3617E+02
      7.432  0.4466E+01  0.3629E+02
      7.460  0.4539E+01  0.3641E+02
      7.487  0.4992E+01  0.3654E+02
      7.515  0.5794E+01  0.3669E+02
      7.543  0.6572E+01  0.3687E+02
      7.571  0.7334E+01  0.3706E+02
      7.598  0.6225E+01  0.3726E+02
      7.626  0.6327E+01  0.3744E+02
      7.654  0.5996E+01  0.3761E+02
      7.682  0.5445E+01  0.3777E+02
      7.709  0.5272E+01  0.3792E+02