unknown system                          
   1.0000000000000000     
     5.647338   -0.000000    0.000000
     0.000000    5.647338    0.000000
    -0.000000   -0.000000    5.647338
   Na   Cl
     4     4
Direct
  0.000000  0.000000  0.000000
  0.000000  0.500000  0.500000
  0.500000  0.000000  0.500000
  0.500000  0.500000  0.000000
  0.500000  0.500000  0.500000
  0.500000  0.000000  0.000000
  0.000000  0.500000  0.000000
  0.000000  0.000000  0.500000

   42   42   42
 0.63479E-03 0.26154E-03 0.16334E-03 0.42986E-03 0.22619E-02 0.12445E-01 0.57415E-01 0.18004     0.35220     0.50994    
 0.63669     0.72962     0.79439     0.83982     0.86886     0.88084     0.87206     0.82930     0.72005     0.51379    
 0.30058     0.22219     0.30058     0.51379     0.72005     0.82930     0.87206     0.88084     0.86886     0.83982    
 0.79439     0.72962     0.63669     0.50994     0.35220     0.18004     0.57415E-01 0.12445E-01 0.22619E-02 0.42986E-03
 0.16334E-03 0.26154E-03 0.26154E-03 0.14791E-03 0.11392E-03 0.32245E-03 0.18412E-02 0.10888E-01 0.52383E-01 0.16883    
 0.33807     0.49756     0.62754     0.72338     0.79007     0.83673     0.86687     0.88019     0.87380     0.83696    
 0.74386     0.56922     0.37778     0.30058     0.37778     0.56922     0.74386     0.83696     0.87380     0.88019    
 0.86687     0.83673     0.79007     0.72338     0.62754     0.49756     0.33807     0.16883     0.52383E-01 0.10888E-01
 0.18412E-02 0.32245E-03 0.11392E-03 0.14791E-03 0.16334E-03 0.11392E-03 0.90177E-04 0.21767E-03 0.12012E-02 0.75639E-02
 0.38859E-01 0.13480     0.29315     0.45850     0.59915     0.70407     0.77662     0.82699     0.86039     0.87752    
 0.87727     0.85418     0.79567     0.69065     0.56922     0.51379     0.56922     0.69065     0.79567     0.85418    
 0.87727     0.87752     0.86039     0.82699     0.77662     0.70407     0.59915     0.45850     0.29315     0.13480    
 0.38859E-01 0.75639E-02 0.12012E-02 0.21767E-03 0.90177E-04 0.11392E-03 0.42986E-03 0.32245E-03 0.21767E-03 0.31187E-03
 0.10739E-02 0.52759E-02 0.24599E-01 0.88128E-01 0.21821     0.38708     0.54659     0.66869     0.75227     0.80929    
 0.84804     0.87094     0.87861     0.87014     0.84262     0.79567     0.74386     0.72005     0.74386     0.79567    
 0.84262     0.87014     0.87861     0.87094     0.84804     0.80929     0.75227     0.66869     0.54659     0.38708    
 0.21821     0.88128E-01 0.24599E-01 0.52759E-02 0.10739E-02 0.31187E-03 0.21767E-03 0.32245E-03 0.22619E-02 0.18412E-02
 0.12012E-02 0.10739E-02 0.18478E-02 0.50975E-02 0.16420E-01 0.50927E-01 0.13555     0.28413     0.46024     0.60930    
 0.71264     0.78119     0.82777     0.85800     0.87410     0.87770     0.87014     0.85418     0.83696     0.82930    
 0.83696     0.85418     0.87014     0.87770     0.87410     0.85800     0.82777     0.78119     0.71264     0.60930    
 0.46024     0.28413     0.13555     0.50927E-01 0.16420E-01 0.50975E-02 0.18478E-02 0.10739E-02 0.12012E-02 0.18412E-02
 0.12445E-01 0.10888E-01 0.75639E-02 0.52759E-02 0.50975E-02 0.73316E-02 0.13847E-01 0.30843E-01 0.75158E-01 0.17558    
 0.33859     0.51363     0.64875     0.73806     0.79675     0.83600     0.86079     0.87410     0.87861     0.87727    
 0.87380     0.87206     0.87380     0.87727     0.87861     0.87410     0.86079     0.83600     0.79675     0.73806    
 0.64875     0.51363     0.33859     0.17558     0.75158E-01 0.30843E-01 0.13847E-01 0.73316E-02 0.50975E-02 0.52759E-02
 0.75639E-02 0.10888E-01 0.57415E-01 0.52383E-01 0.38859E-01 0.24599E-01 0.16420E-01 0.13847E-01 0.15319E-01 0.22237E-01
 0.42265E-01 0.95277E-01 0.20892     0.37848     0.54715     0.67059     0.75012     0.80174     0.83600     0.85800    
 0.87094     0.87752     0.88019     0.88084     0.88019     0.87752     0.87094     0.85800     0.83600     0.80174    
 0.75012     0.67059     0.54715     0.37848     0.20892     0.95277E-01 0.42265E-01 0.22237E-01 0.15319E-01 0.13847E-01
 0.16420E-01 0.24599E-01 0.38859E-01 0.52383E-01 0.18004     0.16883     0.13480     0.88128E-01 0.50927E-01 0.30843E-01
 0.22237E-01 0.20805E-01 0.27416E-01 0.50497E-01 0.11069     0.23212     0.40255     0.56380     0.67784     0.75012    
 0.79675     0.82777     0.84804     0.86039     0.86687     0.86886     0.86687     0.86039     0.84804     0.82777    
 0.79675     0.75012     0.67784     0.56380     0.40255     0.23212     0.11069     0.50497E-01 0.27416E-01 0.20805E-01
 0.22237E-01 0.30843E-01 0.50927E-01 0.88128E-01 0.13480     0.16883     0.35220     0.33807     0.29315     0.21821    
 0.13555     0.75158E-01 0.42265E-01 0.27416E-01 0.23685E-01 0.30426E-01 0.55734E-01 0.11991     0.24395     0.41083    
 0.56380     0.67059     0.73806     0.78119     0.80929     0.82699     0.83673     0.83982     0.83673     0.82699    
 0.80929     0.78119     0.73806     0.67059     0.56380     0.41083     0.24395     0.11991     0.55734E-01 0.30426E-01
 0.23685E-01 0.27416E-01 0.42265E-01 0.75158E-01 0.13555     0.21821     0.29315     0.33807     0.50994     0.49756    
 0.45850     0.38708     0.28413     0.17558     0.95277E-01 0.50497E-01 0.30426E-01 0.25104E-01 0.31859E-01 0.58072E-01
 0.12292     0.24395     0.40255     0.54715     0.64875     0.71264     0.75227     0.77662     0.79007     0.79439    
 0.79007     0.77662     0.75227     0.71264     0.64875     0.54715     0.40255     0.24395     0.12292     0.58072E-01
 0.31859E-01 0.25104E-01 0.30426E-01 0.50497E-01 0.95277E-01 0.17558     0.28413     0.38708     0.45850     0.49756    
 0.63669     0.62754     0.59915     0.54659     0.46024     0.33859     0.20892     0.11069     0.55734E-01 0.31859E-01
 0.25580E-01 0.32226E-01 0.58072E-01 0.11991     0.23212     0.37848     0.51363     0.60930     0.66869     0.70407    
 0.72338     0.72962     0.72338     0.70407     0.66869     0.60930     0.51363     0.37848     0.23212     0.11991    
 0.58072E-01 0.32226E-01 0.25580E-01 0.31859E-01 0.55734E-01 0.11069     0.20892     0.33859     0.46024     0.54659    
 0.59915     0.62754     0.72962     0.72338     0.70407     0.66869     0.60930     0.51363     0.37848     0.23212    
 0.11991     0.58072E-01 0.32226E-01 0.25580E-01 0.31859E-01 0.55734E-01 0.11069     0.20892     0.33859     0.46024    
 0.54659     0.59915     0.62754     0.63669     0.62754     0.59915     0.54659     0.46024     0.33859     0.20892    
 0.11069     0.55734E-01 0.31859E-01 0.25580E-01 0.32226E-01 0.58072E-01 0.11991     0.23212     0.37848     0.51363    
 0.60930     0.66869     0.70407     0.72338     0.79439     0.79007     0.77662     0.75227     0.71264     0.64875    
 0.54715     0.40255     0.24395     0.12292     0.58072E-01 0.31859E-01 0.25104E-01 0.30426E-01 0.50497E-01 0.95277E-01
 0.17558     0.28413     0.38708     0.45850     0.49756     0.50994     0.49756     0.45850     0.38708     0.28413    
 0.17558     0.95277E-01 0.50497E-01 0.30426E-01 0.25104E-01 0.31859E-01 0.58072E-01 0.12292     0.24395     0.40255    
 0.54715     0.64875     0.71264     0.75227     0.77662     0.79007     0.83982     0.83673     0.82699     0.80929    
 0.78119     0.73806     0.67059     0.56380     0.41083     0.24395     0.11991     0.55734E-01 0.30426E-01 0.23685E-01
 0.27416E-01 0.42265E-01 0.75158E-01 0.13555     0.21821     0.29315     0.33807     0.35220     0.33807     0.29315    
 0.21821     0.13555     0.75158E-01 0.42265E-01 0.27416E-01 0.23685E-01 0.30426E-01 0.55734E-01 0.11991     0.24395    
 0.41083     0.56380     0.67059     0.73806     0.78119     0.80929     0.82699     0.83673     0.86886     0.86687    
 0.86039     0.84804     0.82777     0.79675     0.75012     0.67784     0.56380     0.40255     0.23212     0.11069    
 0.50497E-01 0.27416E-01 0.20805E-01 0.22237E-01 0.30843E-01 0.50927E-01 0.88128E-01 0.13480     0.16883     0.18004    
 0.16883     0.13480     0.88128E-01 0.50927E-01 0.30843E-01 0.22237E-01 0.20805E-01 0.27416E-01 0.50497E-01 0.11069    
 0.23212     0.40255     0.56380     0.67784     0.75012     0.79675     0.82777     0.84804     0.86039     0.86687    
 0.88084     0.88019     0.87752     0.87094     0.85800     0.83600     0.80174     0.75012     0.67059     0.54715    
 0.37848     0.20892     0.95277E-01 0.42265E-01 0.22237E-01 0.15319E-01 0.13847E-01 0.16420E-01 0.24599E-01 0.38859E-01
 0.52383E-01 0.57415E-01 0.52383E-01 0.38859E-01 0.24599E-01 0.16420E-01 0.13847E-01 0.15319E-01 0.22237E-01 0.42265E-01
 0.95277E-01 0.20892     0.37848     0.54715     0.67059     0.75012     0.80174     0.83600     0.85800     0.87094    
 0.87752     0.88019     0.87206     0.87380     0.87727     0.87861     0.87410     0.86079     0.83600     0.79675    
 0.73806     0.64875     0.51363     0.33859     0.17558     0.75158E-01 0.30843E-01 0.13847E-01 0.73316E-02 0.50975E-02
 0.52759E-02 0.75639E-02 0.10888E-01 0.12445E-01 0.10888E-01 0.75639E-02 0.52759E-02 0.50975E-02 0.73316E-02 0.13847E-01
 0.30843E-01 0.75158E-01 0.17558     0.33859     0.51363     0.64875     0.73806     0.79675     0.83600     0.86079    
 0.87410     0.87861     0.87727     0.87380     0.82930     0.83696     0.85418     0.87014     0.87770     0.87410    
 0.85800     0.82777     0.78119     0.71264     0.60930     0.46024     0.28413     0.13555     0.50927E-01 0.16420E-01
 0.50975E-02 0.18478E-02 0.10739E-02 0.12012E-02 0.18412E-02 0.22619E-02 0.18412E-02 0.12012E-02 0.10739E-02 0.18478E-02
 0.50975E-02 0.16420E-01 0.50927E-01 0.13555     0.28413     0.46024     0.60930     0.71264     0.78119     0.82777    
 0.85800     0.87410     0.87770     0.87014     0.85418     0.83696     0.72005     0.74386     0.79567     0.84262    
 0.87014     0.87861     0.87094     0.84804     0.80929     0.75227     0.66869     0.54659     0.38708     0.21821    
 0.88128E-01 0.24599E-01 0.52759E-02 0.10739E-02 0.31187E-03 0.21767E-03 0.32245E-03 0.42986E-03 0.32245E-03 0.21767E-03
 0.31187E-03 0.10739E-02 0.52759E-02 0.24599E-01 0.88128E-01 0.21821     0.38708     0.54659     0.66869     0.75227    
 0.80929     0.84804     0.87094     0.87861     0.87014     0.84262     0.79567     0.74386     0.51379     0.56922    
 0.69065     0.79567     0.85418     0.87727     0.87752     0.86039     0.82699     0.77662     0.70407     0.59915    
 0.45850     0.29315     0.13480     0.38859E-01 0.75639E-02 0.12012E-02 0.21767E-03 0.90177E-04 0.11392E-03 0.16334E-03
 0.11392E-03 0.90177E-04 0.21767E-03 0.12012E-02 0.75639E-02 0.38859E-01 0.13480     0.29315     0.45850     0.59915    
 0.70407     0.77662     0.82699     0.86039     0.87752     0.87727     0.85418     0.79567     0.69065     0.56922    
 0.30058     0.37778     0.56922     0.74386     0.83696     0.87380     0.88019     0.86687     0.83673     0.79007    
 0.72338     0.62754     0.49756     0.33807     0.16883     0.52383E-01 0.10888E-01 0.18412E-02 0.32245E-03 0.11392E-03
 0.14791E-03 0.26154E-03 0.14791E-03 0.11392E-03 0.32245E-03 0.18412E-02 0.10888E-01 0.52383E-01 0.16883     0.33807    
 0.49756     0.62754     0.72338     0.79007     0.83673     0.86687     0.88019     0.87380     0.83696     0.74386    
 0.56922     0.37778     0.22219     0.30058     0.51379     0.72005     0.82930     0.87206     0.88084     0.86886    
 0.83982     0.79439     0.72962     0.63669     0.50994     0.35220     0.18004     0.57415E-01 0.12445E-01 0.22619E-02
 0.42986E-03 0.16334E-03 0.26154E-03 0.63479E-03 0.26154E-03 0.16334E-03 0.42986E-03 0.22619E-02 0.12445E-01 0.57415E-01
 0.18004     0.35220     0.50994     0.63669     0.72962     0.79439     0.83982     0.86886     0.88084     0.87206    
 0.82930     0.72005     0.51379     0.30058     0.30058     0.37778     0.56922     0.74386     0.83696     0.87380    
 0.88019     0.86687     0.83673     0.79007     0.72338     0.62754     0.49756     0.33807     0.16883     0.52383E-01
 0.10888E-01 0.18412E-02 0.32245E-03 0.11392E-03 0.14791E-03 0.26154E-03 0.14791E-03 0.11392E-03 0.32245E-03 0.18412E-02
 0.10888E-01 0.52383E-01 0.16883     0.33807     0.49756     0.62754     0.72338     0.79007     0.83673     0.86687    
 0.88019     0.87380     0.83696     0.74386     0.56922     0.37778     0.51379     0.56922     0.69065     0.79567    
 0.85418     0.87727     0.87752     0.86039     0.82699     0.77662     0.70407     0.59915     0.45850     0.29315    
 0.13480     0.38859E-01 0.75639E-02 0.12012E-02 0.21767E-03 0.90177E-04 0.11392E-03 0.16334E-03 0.11392E-03 0.90177E-04
 0.21767E-03 0.12012E-02 0.75639E-02 0.38859E-01 0.13480     0.29315     0.45850     0.59915     0.70407     0.77662    
 0.82699     0.86039     0.87752     0.87727     0.85418     0.79567     0.69065     0.56922     0.72005     0.74386    
 0.79567     0.84262     0.87014     0.87861     0.87094     0.84804     0.80929     0.75227     0.66869     0.54659    
 0.38708     0.21821     0.88128E-01 0.24599E-01 0.52759E-02 0.10739E-02 0.31187E-03 0.21767E-03 0.32245E-03 0.42986E-03
 0.32245E-03 0.21767E-03 0.31187E-03 0.10739E-02 0.52759E-02 0.24599E-01 0.88128E-01 0.21821     0.38708     0.54659    
 0.66869     0.75227     0.80929     0.84804     0.87094     0.87861     0.87014     0.84262     0.79567     0.74386    
 0.82930     0.83696     0.85418     0.87014     0.87770     0.87410     0.85800     0.82777     0.78119     0.71264    
 0.60930     0.46024     0.28413     0.13555     0.50927E-01 0.16420E-01 0.50975E-02 0.18478E-02 0.10739E-02 0.12012E-02
 0.18412E-02 0.22619E-02 0.18412E-02 0.12012E-02 0.10739E-02 0.18478E-02 0.50975E-02 0.16420E-01 0.50927E-01 0.13555    
 0.28413     0.46024     0.60930     0.71264     0.78119     0.82777     0.85800     0.87410     0.87770     0.87014    
 0.85418     0.83696     0.87206     0.87380     0.87727     0.87861     0.87410     0.86079     0.83600     0.79675    
 0.73806     0.64875     0.51363     0.33859     0.17558     0.75158E-01 0.30843E-01 0.13847E-01 0.73316E-02 0.50975E-02
 0.52759E-02 0.75639E-02 0.10888E-01 0.12445E-01 0.10888E-01 0.75639E-02 0.52759E-02 0.50975E-02 0.73316E-02 0.13847E-01
 0.30843E-01 0.75158E-01 0.17558     0.33859     0.51363     0.64875     0.73806     0.79675     0.83600     0.86079    
 0.87410     0.87861     0.87727     0.87380     0.88084     0.88019     0.87752     0.87094     0.85800     0.83600    
 0.80174     0.75012     0.67059     0.54715     0.37848     0.20892     0.95277E-01 0.42265E-01 0.22237E-01 0.15319E-01
 0.13847E-01 0.16420E-01 0.24599E-01 0.38859E-01 0.52383E-01 0.57415E-01 0.52383E-01 0.38859E-01 0.24599E-01 0.16420E-01
 0.13847E-01 0.15319E-01 0.22237E-01 0.42265E-01 0.95277E-01 0.20892     0.37848     0.54715     0.67059     0.75012    
 0.80174     0.83600     0.85800     0.87094     0.87752     0.88019     0.86886     0.86687     0.86039     0.84804    
 0.82777     0.79675     0.75012     0.67784     0.56380     0.40255     0.23212     0.11069     0.50497E-01 0.27416E-01
 0.20805E-01 0.22237E-01 0.30843E-01 0.50927E-01 0.88128E-01 0.13480     0.16883     0.18004     0.16883     0.13480    
 0.88128E-01 0.50927E-01 0.30843E-01 0.22237E-01 0.20805E-01 0.27416E-01 0.50497E-01 0.11069     0.23212     0.40255    
 0.56380     0.67784     0.75012     0.79675     0.82777     0.84804     0.86039     0.86687     0.83982     0.83673    
 0.82699     0.80929     0.78119     0.73806     0.67059     0.56380     0.41083     0.24395     0.11991     0.55734E-01
 0.30426E-01 0.23685E-01 0.27416E-01 0.42265E-01 0.75158E-01 0.13555     0.21821     0.29315     0.33807     0.35220    
 0.33807     0.29315     0.21821     0.13555     0.75158E-01 0.42265E-01 0.27416E-01 0.23685E-01 0.30426E-01 0.55734E-01
 0.11991     0.24395     0.41083     0.56380     0.67059     0.73806     0.78119     0.80929     0.82699     0.83673    
 0.79439     0.79007     0.77662     0.75227     0.71264     0.64875     0.54715     0.40255     0.24395     0.12292    
 0.58072E-01 0.31859E-01 0.25104E-01 0.30426E-01 0.50497E-01 0.95277E-01 0.17558     0.28413     0.38708     0.45850    
 0.49756     0.50994     0.49756     0.45850     0.38708     0.28413     0.17558     0.95277E-01 0.50497E-01 0.30426E-01
 0.25104E-01 0.31859E-01 0.58072E-01 0.12292     0.24395     0.40255     0.54715     0.64875     0.71264     0.75227    
 0.77662     0.79007     0.72962     0.72338     0.70407     0.66869     0.60930     0.51363     0.37848     0.23212    
 0.11991     0.58072E-01 0.32226E-01 0.25580E-01 0.31859E-01 0.55734E-01 0.11069     0.20892     0.33859     0.46024    
 0.54659     0.59915     0.62754     0.63669     0.62754     0.59915     0.54659     0.46024     0.33859     0.20892    
 0.11069     0.55734E-01 0.31859E-01 0.25580E-01 0.32226E-01 0.58072E-01 0.11991     0.23212     0.37848     0.51363    
 0.60930     0.66869     0.70407     0.72338     0.63669     0.62754     0.59915     0.54659     0.46024     0.33859    
 0.20892     0.11069     0.55734E-01 0.31859E-01 0.25580E-01 0.32226E-01 0.58072E-01 0.11991     0.23212     0.37848    
 0.51363     0.60930     0.66869     0.70407     0.72338     0.72962     0.72338     0.70407     0.66869     0.60930    
 0.51363     0.37848     0.23212     0.11991     0.58072E-01 0.32226E-01 0.25580E-01 0.31859E-01 0.55734E-01 0.11069    
 0.20892     0.33859     0.46024     0.54659     0.59915     0.62754     0.50994     0.49756     0.45850     0.38708    
 0.28413     0.17558     0.95277E-01 0.50497E-01 0.30426E-01 0.25104E-01 0.31859E-01 0.58072E-01 0.12292     0.24395    
 0.40255     0.54715     0.64875     0.71264     0.75227     0.77662     0.79007     0.79439     0.79007     0.77662    
 0.75227     0.71264     0.64875     0.54715     0.40255     0.24395     0.12292     0.58072E-01 0.31859E-01 0.25104E-01
 0.30426E-01 0.50497E-01 0.95277E-01 0.17558     0.28413     0.38708     0.45850     0.49756     0.35220     0.33807    
 0.29315     0.21821     0.13555     0.75158E-01 0.42265E-01 0.27416E-01 0.23685E-01 0.30426E-01 0.55734E-01 0.11991    
 0.24395     0.41083     0.56380     0.67059     0.73806     0.78119     0.80929     0.82699     0.83673     0.83982    
 0.83673     0.82699     0.80929     0.78119     0.73806     0.67059     0.56380     0.41083     0.24395     0.11991    
 0.55734E-01 0.30426E-01 0.23685E-01 0.27416E-01 0.42265E-01 0.75158E-01 0.13555     0.21821     0.29315     0.33807    
 0.18004     0.16883     0.13480     0.88128E-01 0.50927E-01 0.30843E-01 0.22237E-01 0.20805E-01 0.27416E-01 0.50497E-01
 0.11069     0.23212     0.40255     0.56380     0.67784     0.75012     0.79675     0.82777     0.84804     0.86039    
 0.86687     0.86886     0.86687     0.86039     0.84804     0.82777     0.79675     0.75012     0.67784     0.56380    
 0.40255     0.23212     0.11069     0.50497E-01 0.27416E-01 0.20805E-01 0.22237E-01 0.30843E-01 0.50927E-01 0.88128E-01
 0.13480     0.16883     0.57415E-01 0.52383E-01 0.38859E-01 0.24599E-01 0.16420E-01 0.13847E-01 0.15319E-01 0.22237E-01
 0.42265E-01 0.95277E-01 0.20892     0.37848     0.54715     0.67059     0.75012     0.80174     0.83600     0.85800    
 0.87094     0.87752     0.88019     0.88084     0.88019     0.87752     0.87094     0.85800     0.83600     0.80174    
 0.75012     0.67059     0.54715     0.37848     0.20892     0.95277E-01 0.42265E-01 0.22237E-01 0.15319E-01 0.13847E-01
 0.16420E-01 0.24599E-01 0.38859E-01 0.52383E-01 0.12445E-01 0.10888E-01 0.75639E-02 0.52759E-02 0.50975E-02 0.73316E-02
 0.13847E-01 0.30843E-01 0.75158E-01 0.17558     0.33859     0.51363     0.64875     0.73806     0.79675     0.83600    
 0.86079     0.87410     0.87861     0.87727     0.87380     0.87206     0.87380     0.87727     0.87861     0.87410    
 0.86079     0.83600     0.79675     0.73806     0.64875     0.51363     0.33859     0.17558     0.75158E-01 0.30843E-01
 0.13847E-01 0.73316E-02 0.50975E-02 0.52759E-02 0.75639E-02 0.10888E-01 0.22619E-02 0.18412E-02 0.12012E-02 0.10739E-02
 0.18478E-02 0.50975E-02 0.16420E-01 0.50927E-01 0.13555     0.28413     0.46024     0.60930     0.71264     0.78119    
 0.82777     0.85800     0.87410     0.87770     0.87014     0.85418     0.83696     0.82930     0.83696     0.85418    
 0.87014     0.87770     0.87410     0.85800     0.82777     0.78119     0.71264     0.60930     0.46024     0.28413    
 0.13555     0.50927E-01 0.16420E-01 0.50975E-02 0.18478E-02 0.10739E-02 0.12012E-02 0.18412E-02 0.42986E-03 0.32245E-03
 0.21767E-03 0.31187E-03 0.10739E-02 0.52759E-02 0.24599E-01 0.88128E-01 0.21821     0.38708     0.54659     0.66869    
 0.75227     0.80929     0.84804     0.87094     0.87861     0.87014     0.84262     0.79567     0.74386     0.72005    
 0.74386     0.79567     0.84262     0.87014     0.87861     0.87094     0.84804     0.80929     0.75227     0.66869    
 0.54659     0.38708     0.21821     0.88128E-01 0.24599E-01 0.52759E-02 0.10739E-02 0.31187E-03 0.21767E-03 0.32245E-03
 0.16334E-03 0.11392E-03 0.90177E-04 0.21767E-03 0.12012E-02 0.75639E-02 0.38859E-01 0.13480     0.29315     0.45850    
 0.59915     0.70407     0.77662     0.82699     0.86039     0.87752     0.87727     0.85418     0.79567     0.69065    
 0.56922     0.51379     0.56922     0.69065     0.79567     0.85418     0.87727     0.87752     0.86039     0.82699    
 0.77662     0.70407     0.59915     0.45850     0.29315     0.13480     0.38859E-01 0.75639E-02 0.12012E-02 0.21767E-03
 0.90177E-04 0.11392E-03 0.26154E-03 0.14791E-03 0.11392E-03 0.32245E-03 0.18412E-02 0.10888E-01 0.52383E-01 0.16883    
 0.33807     0.49756     0.62754     0.72338     0.79007     0.83673     0.86687     0.88019     0.87380     0.83696    
 0.74386     0.56922     0.37778     0.30058     0.37778     0.56922     0.74386     0.83696     0.87380     0.88019    
 0.86687     0.83673     0.79007     0.72338     0.62754     0.49756     0.33807     0.16883     0.52383E-01 0.10888E-01
 0.18412E-02 0.32245E-03 0.11392E-03 0.14791E-03 0.26154E-03 0.14791E-03 0.11392E-03 0.32245E-03 0.18412E-02 0.10888E-01
 0.52383E-01 0.16883     0.33807     0.49756     0.62754     0.72338     0.79007     0.83673     0.86687     0.88019    
 0.87380     0.83696     0.74386     0.56922     0.37778     0.30058     0.37778     0.56922     0.74386     0.83696    
 0.87380     0.88019     0.86687     0.83673     0.79007     0.72338     0.62754     0.49756     0.33807     0.16883    
 0.52383E-01 0.10888E-01 0.18412E-02 0.32245E-03 0.11392E-03 0.14791E-03 0.14791E-03 0.10121E-03 0.89869E-04 0.26288E-03
 0.15661E-02 0.97029E-02 0.48078E-01 0.15844     0.32426     0.48512     0.61822     0.71701     0.78566     0.83356    
 0.86480     0.87942     0.87522     0.84354     0.76398     0.61656     0.44945     0.37778     0.44945     0.61656    
 0.76398     0.84354     0.87522     0.87942     0.86480     0.83356     0.78566     0.71701     0.61822     0.48512    
 0.32426     0.15844     0.48078E-01 0.97029E-02 0.15661E-02 0.26288E-03 0.89869E-04 0.10121E-03 0.11392E-03 0.89869E-04
 0.81768E-04 0.20372E-03 0.11226E-02 0.70737E-02 0.36372E-01 0.12706     0.28081     0.44615     0.58940     0.69728    
 0.77195     0.82362     0.85809     0.87640     0.87790     0.85835     0.80800     0.71902     0.61656     0.56922    
 0.61656     0.71902     0.80800     0.85835     0.87790     0.87640     0.85809     0.82362     0.77195     0.69728    
 0.58940     0.44615     0.28081     0.12706     0.36372E-01 0.70737E-02 0.11226E-02 0.20372E-03 0.81768E-04 0.89869E-04
 0.32245E-03 0.26288E-03 0.20372E-03 0.31184E-03 0.10754E-02 0.51824E-02 0.23681E-01 0.83998E-01 0.20913     0.37569    
 0.53643     0.66125     0.74712     0.80558     0.84537     0.86930     0.87829     0.87194     0.84833     0.80800    
 0.76398     0.74386     0.76398     0.80800     0.84833     0.87194     0.87829     0.86930     0.84537     0.80558    
 0.74712     0.66125     0.53643     0.37569     0.20913     0.83998E-01 0.23681E-01 0.51824E-02 0.10754E-02 0.31184E-03
 0.20372E-03 0.26288E-03 0.18412E-02 0.15661E-02 0.11226E-02 0.10754E-02 0.18846E-02 0.51328E-02 0.16170E-01 0.49261E-01
 0.13046     0.27523     0.45029     0.60112     0.70679     0.77696     0.82460     0.85576     0.87287     0.87773    
 0.87194     0.85835     0.84354     0.83696     0.84354     0.85835     0.87194     0.87773     0.87287     0.85576    
 0.82460     0.77696     0.70679     0.60112     0.45029     0.27523     0.13046     0.49261E-01 0.16170E-01 0.51328E-02
 0.18846E-02 0.10754E-02 0.11226E-02 0.15661E-02 0.10888E-01 0.97029E-02 0.70737E-02 0.51824E-02 0.51328E-02 0.73887E-02
 0.13780E-01 0.30211E-01 0.72862E-01 0.17011     0.33019     0.50508     0.64203     0.73312     0.79298     0.83310    
 0.85871     0.87287     0.87829     0.87790     0.87522     0.87380     0.87522     0.87790     0.87829     0.87287    
 0.85871     0.83310     0.79298     0.73312     0.64203     0.50508     0.33019     0.17011     0.72862E-01 0.30211E-01
 0.13780E-01 0.73887E-02 0.51328E-02 0.51824E-02 0.70737E-02 0.97029E-02 0.52383E-01 0.48078E-01 0.36372E-01 0.23681E-01
 0.16170E-01 0.13780E-01 0.15241E-01 0.21952E-01 0.41314E-01 0.92619E-01 0.20339     0.37081     0.53977     0.66474    
 0.74558     0.79811     0.83310     0.85576     0.86930     0.87640     0.87942     0.88019     0.87942     0.87640    
 0.86930     0.85576     0.83310     0.79811     0.74558     0.66474     0.53977     0.37081     0.20339     0.92619E-01
 0.41314E-01 0.21952E-01 0.15241E-01 0.13780E-01 0.16170E-01 0.23681E-01 0.36372E-01 0.48078E-01 0.16883     0.15844    
 0.12706     0.83998E-01 0.49261E-01 0.30211E-01 0.21952E-01 0.20572E-01 0.26989E-01 0.49392E-01 0.10795     0.22688    
 0.39563     0.55712     0.67228     0.74558     0.79298     0.82460     0.84537     0.85809     0.86480     0.86687    
 0.86480     0.85809     0.84537     0.82460     0.79298     0.74558     0.67228     0.55712     0.39563     0.22688    
 0.10795     0.49392E-01 0.26989E-01 0.20572E-01 0.21952E-01 0.30211E-01 0.49261E-01 0.83998E-01 0.12706     0.15844    
 0.33807     0.32426     0.28081     0.20913     0.13046     0.72862E-01 0.41314E-01 0.26989E-01 0.23376E-01 0.29950E-01
 0.54629E-01 0.11731     0.23906     0.40424     0.55712     0.66474     0.73312     0.77696     0.80558     0.82362    
 0.83356     0.83673     0.83356     0.82362     0.80558     0.77696     0.73312     0.66474     0.55712     0.40424    
 0.23906     0.11731     0.54629E-01 0.29950E-01 0.23376E-01 0.26989E-01 0.41314E-01 0.72862E-01 0.13046     0.20913    
 0.28081     0.32426     0.49756     0.48512     0.44615     0.37569     0.27523     0.17011     0.92619E-01 0.49392E-01
 0.29950E-01 0.24783E-01 0.31401E-01 0.57033E-01 0.12042     0.23906     0.39563     0.53977     0.64203     0.70679    
 0.74712     0.77195     0.78566     0.79007     0.78566     0.77195     0.74712     0.70679     0.64203     0.53977    
 0.39563     0.23906     0.12042     0.57033E-01 0.31401E-01 0.24783E-01 0.29950E-01 0.49392E-01 0.92619E-01 0.17011    
 0.27523     0.37569     0.44615     0.48512     0.62754     0.61822     0.58940     0.53643     0.45029     0.33019    
 0.20339     0.10795     0.54629E-01 0.31401E-01 0.25275E-01 0.31787E-01 0.57033E-01 0.11731     0.22688     0.37081    
 0.50508     0.60112     0.66125     0.69728     0.71701     0.72338     0.71701     0.69728     0.66125     0.60112    
 0.50508     0.37081     0.22688     0.11731     0.57033E-01 0.31787E-01 0.25275E-01 0.31401E-01 0.54629E-01 0.10795    
 0.20339     0.33019     0.45029     0.53643     0.58940     0.61822     0.72338     0.71701     0.69728     0.66125    
 0.60112     0.50508     0.37081     0.22688     0.11731     0.57033E-01 0.31787E-01 0.25275E-01 0.31401E-01 0.54629E-01
 0.10795     0.20339     0.33019     0.45029     0.53643     0.58940     0.61822     0.62754     0.61822     0.58940    
 0.53643     0.45029     0.33019     0.20339     0.10795     0.54629E-01 0.31401E-01 0.25275E-01 0.31787E-01 0.57033E-01
 0.11731     0.22688     0.37081     0.50508     0.60112     0.66125     0.69728     0.71701     0.79007     0.78566    
 0.77195     0.74712     0.70679     0.64203     0.53977     0.39563     0.23906     0.12042     0.57033E-01 0.31401E-01
 0.24783E-01 0.29950E-01 0.49392E-01 0.92619E-01 0.17011     0.27523     0.37569     0.44615     0.48512     0.49756    
 0.48512     0.44615     0.37569     0.27523     0.17011     0.92619E-01 0.49392E-01 0.29950E-01 0.24783E-01 0.31401E-01
 0.57033E-01 0.12042     0.23906     0.39563     0.53977     0.64203     0.70679     0.74712     0.77195     0.78566    
 0.83673     0.83356     0.82362     0.80558     0.77696     0.73312     0.66474     0.55712     0.40424     0.23906    
 0.11731     0.54629E-01 0.29950E-01 0.23376E-01 0.26989E-01 0.41314E-01 0.72862E-01 0.13046     0.20913     0.28081    
 0.32426     0.33807     0.32426     0.28081     0.20913     0.13046     0.72862E-01 0.41314E-01 0.26989E-01 0.23376E-01
 0.29950E-01 0.54629E-01 0.11731     0.23906     0.40424     0.55712     0.66474     0.73312     0.77696     0.80558    
 0.82362     0.83356     0.86687     0.86480     0.85809     0.84537     0.82460     0.79298     0.74558     0.67228    
 0.55712     0.39563     0.22688     0.10795     0.49392E-01 0.26989E-01 0.20572E-01 0.21952E-01 0.30211E-01 0.49261E-01
 0.83998E-01 0.12706     0.15844     0.16883     0.15844     0.12706     0.83998E-01 0.49261E-01 0.30211E-01 0.21952E-01
 0.20572E-01 0.26989E-01 0.49392E-01 0.10795     0.22688     0.39563     0.55712     0.67228     0.74558     0.79298    
 0.82460     0.84537     0.85809     0.86480     0.88019     0.87942     0.87640     0.86930     0.85576     0.83310    
 0.79811     0.74558     0.66474     0.53977     0.37081     0.20339     0.92619E-01 0.41314E-01 0.21952E-01 0.15241E-01
 0.13780E-01 0.16170E-01 0.23681E-01 0.36372E-01 0.48078E-01 0.52383E-01 0.48078E-01 0.36372E-01 0.23681E-01 0.16170E-01
 0.13780E-01 0.15241E-01 0.21952E-01 0.41314E-01 0.92619E-01 0.20339     0.37081     0.53977     0.66474     0.74558    