ESCALE ; pCOHP file generated by LOBSTER. Energy is shifted such that the Fermi level lies at 0 eV.
        81          1        301  -1.62824e+00   1.34219e+01   8.40521e+00 
Average
No.1:Si1->Fe9(2.2635382608192618)
No.2:Si2->Fe10(2.2635382608192618)
No.3:Si3->Fe11(2.2635382608192618)
No.4:Si4->Fe12(2.2635382608192618)
No.5:Si5->Fe10(2.36196509659238)
No.6:Si5->Fe10(2.36196509659238)
No.7:Si5->Fe11(2.370397563484814)
No.8:Si5->Fe11(2.370397563484814)
No.9:Si6->Fe9(2.3619650965923169)
No.10:Si6->Fe9(2.3619650965923169)
No.11:Si6->Fe12(2.3703975634848771)
No.12:Si6->Fe12(2.3703975634848771)
No.13:Si7->Fe9(2.3703975634848771)
No.14:Si7->Fe9(2.3703975634848771)
No.15:Si7->Fe12(2.3619650965923169)
No.16:Si7->Fe12(2.3619650965923169)
No.17:Si8->Fe10(2.370397563484814)
No.18:Si8->Fe10(2.370397563484814)
No.19:Si8->Fe11(2.36196509659238)
No.20:Si8->Fe11(2.36196509659238)
No.21:Si1->Ce15(3.2320628828271598)
No.22:Si1->Ce15(3.2320628828271598)
No.23:Si1->Ce16(3.0770786512221622)
No.24:Si1->Ce16(3.0770786512221622)
No.25:Si1->Ce16(3.0770786512221622)
No.26:Si1->Ce16(3.0770786512221622)
No.27:Si2->Ce15(3.0770786512221622)
No.28:Si2->Ce15(3.0770786512221622)
No.29:Si2->Ce15(3.0770786512221622)
No.30:Si2->Ce15(3.0770786512221622)
No.31:Si2->Ce16(3.2320628828271598)
No.32:Si2->Ce16(3.2320628828271598)
No.33:Si3->Ce13(3.2320628828271598)
No.34:Si3->Ce13(3.2320628828271598)
No.35:Si3->Ce14(3.0770786512221622)
No.36:Si3->Ce14(3.0770786512221622)
No.37:Si3->Ce14(3.0770786512221622)
No.38:Si3->Ce14(3.0770786512221622)
No.39:Si4->Ce13(3.0770786512221626)
No.40:Si4->Ce13(3.0770786512221626)
No.41:Si4->Ce13(3.0770786512221626)
No.42:Si4->Ce13(3.0770786512221626)
No.43:Si4->Ce14(3.2320628828271594)
No.44:Si4->Ce14(3.2320628828271594)
No.45:Si5->Ce14(3.0735374565718048)
No.46:Si5->Ce14(3.0735374565718048)
No.47:Si5->Ce15(3.0881315226021031)
No.48:Si5->Ce15(3.0881315226021031)
No.49:Si6->Ce13(3.0735374565718954)
No.50:Si6->Ce13(3.0735374565718954)
No.51:Si6->Ce16(3.0881315226020125)
No.52:Si6->Ce16(3.0881315226020125)
No.53:Si7->Ce13(3.0881315226020125)
No.54:Si7->Ce13(3.0881315226020125)
No.55:Si7->Ce16(3.0735374565718954)
No.56:Si7->Ce16(3.0735374565718954)
No.57:Si8->Ce14(3.0881315226021031)
No.58:Si8->Ce14(3.0881315226021031)
No.59:Si8->Ce15(3.0735374565718048)
No.60:Si8->Ce15(3.0735374565718048)
No.61:Fe9->Ce16(3.0437049389134678)
No.62:Fe9->Ce16(3.0437049389134678)
No.63:Fe9->Ce16(3.0437049389134678)
No.64:Fe9->Ce16(3.0437049389134678)
No.65:Fe10->Ce15(3.0437049389134683)
No.66:Fe10->Ce15(3.0437049389134683)
No.67:Fe10->Ce15(3.0437049389134683)
No.68:Fe10->Ce15(3.0437049389134683)
No.69:Fe11->Ce14(3.0437049389134683)
No.70:Fe11->Ce14(3.0437049389134683)
No.71:Fe11->Ce14(3.0437049389134683)
No.72:Fe11->Ce14(3.0437049389134683)
No.73:Fe12->Ce13(3.0437049389134678)
No.74:Fe12->Ce13(3.0437049389134678)
No.75:Fe12->Ce13(3.0437049389134678)
No.76:Fe12->Ce13(3.0437049389134678)
No.77:Si1->Si2(2.4146524175649811)
No.78:Si1->Si2(2.4146524175649811)
No.79:Si3->Si4(2.4146524175649806)
No.80:Si3->Si4(2.4146524175649806)
-10.03344   0.00000  -0.42851   0.00000  -0.10505   0.00000  -0.10603   0.00000  -0.10469   0.00000  -0.10695   0.00000  -0.08232   0.00000  -0.08209   0.00000  -0.08227   0.00000  -0.08232   0.00000  -0.08078   0.00000  -0.08097   0.00000  -0.08427   0.00000  -0.08429   0.00000  -0.08171   0.00000  -0.08221   0.00000  -0.08355   0.00000  -0.08472   0.00000  -0.08278   0.00000  -0.08261   0.00000  -0.08293   0.00000  -0.08116   0.00000  -0.42259   0.00000  -0.42279   0.00000  -0.73604   0.00000  -0.73575   0.00000  -0.73562   0.00000  -0.73501   0.00000  -0.73525   0.00000  -0.73567   0.00000  -0.73654   0.00000  -0.73663   0.00000  -0.42393   0.00000  -0.42364   0.00000  -0.42203   0.00000  -0.42208   0.00000  -0.73621   0.00000  -0.73620   0.00000  -0.73636   0.00000  -0.73633   0.00000  -0.73601   0.00000  -0.73625   0.00000  -0.73624   0.00000  -0.73648   0.00000  -0.42241   0.00000  -0.42249   0.00000  -0.67315   0.00000  -0.67383   0.00000  -0.65117   0.00000  -0.65106   0.00000  -0.67243   0.00000  -0.67211   0.00000  -0.65097   0.00000  -0.65095   0.00000  -0.64981   0.00000  -0.64999   0.00000  -0.67303   0.00000  -0.67281   0.00000  -0.65174   0.00000  -0.65140   0.00000  -0.67270   0.00000  -0.67300   0.00000  -0.37741   0.00000  -0.37931   0.00000  -0.37801   0.00000  -0.38014   0.00000  -0.37862   0.00000  -0.37820   0.00000  -0.37647   0.00000  -0.37614   0.00000  -0.37839   0.00000  -0.37899   0.00000  -0.37574   0.00000  -0.37613   0.00000  -0.38249   0.00000  -0.38046   0.00000  -0.38225   0.00000  -0.38041   0.00000  -0.18142   0.00000  -0.18235   0.00000  -0.18279   0.00000  -0.18257
 -9.98328  -0.03715  -0.43037  -0.04922  -0.10752  -0.04977  -0.10853  -0.04970  -0.10718  -0.05009  -0.10946  -0.10461  -0.08757  -0.10429  -0.08732  -0.10261  -0.08742  -0.10267  -0.08747  -0.10245  -0.08592  -0.10244  -0.08611  -0.10547  -0.08956  -0.10566  -0.08959  -0.10220  -0.08684  -0.10273  -0.08736  -0.10587  -0.08886  -0.10751  -0.09012  -0.10344  -0.08797  -0.10337  -0.08780  -0.10526  -0.08821  -0.10299  -0.08632  -0.02780  -0.42398  -0.02804  -0.42419  -0.02070  -0.73708  -0.02052  -0.73678  -0.02014  -0.73663  -0.01996  -0.73602  -0.02011  -0.73625  -0.02028  -0.73669  -0.02074  -0.73758  -0.02091  -0.73768  -0.02934  -0.42541  -0.02914  -0.42510  -0.02788  -0.42342  -0.02780  -0.42347  -0.02013  -0.73722  -0.02010  -0.73721  -0.02025  -0.73738  -0.02024  -0.73735  -0.02024  -0.73702  -0.02029  -0.73727  -0.02055  -0.73727  -0.02060  -0.73751  -0.02764  -0.42379  -0.02768  -0.42388  -0.03854  -0.67508  -0.03962  -0.67582  -0.04444  -0.65340  -0.04466  -0.65330  -0.03799  -0.67434  -0.03775  -0.67400  -0.04436  -0.65320  -0.04389  -0.65316  -0.04364  -0.65200  -0.04402  -0.65220  -0.03872  -0.67497  -0.03850  -0.67474  -0.04512  -0.65400  -0.04436  -0.65363  -0.03827  -0.67462  -0.03874  -0.67494   0.02901  -0.37595   0.02774  -0.37792   0.02812  -0.37659   0.02673  -0.37880   0.02910  -0.37716   0.02922  -0.37674   0.03063  -0.37493   0.03084  -0.37459   0.02894  -0.37694   0.02837  -0.37757   0.03117  -0.37418   0.03066  -0.37459   0.02704  -0.38113   0.02845  -0.37904   0.02738  -0.38088   0.02866  -0.37897  -0.08907  -0.18589  -0.08995  -0.18686  -0.08961  -0.18728  -0.08968  -0.18707
 -9.93311  -0.04082  -0.43242  -0.05382  -0.11022  -0.05442  -0.11126  -0.05436  -0.10991  -0.05477  -0.11221  -0.11155  -0.09316  -0.11122  -0.09290  -0.10946  -0.09291  -0.10952  -0.09296  -0.10928  -0.09140  -0.10928  -0.09159  -0.11247  -0.09521  -0.11268  -0.09524  -0.10901  -0.09231  -0.10960  -0.09286  -0.11289  -0.09452  -0.11463  -0.09587  -0.11034  -0.09351  -0.11025  -0.09333  -0.11226  -0.09385  -0.10985  -0.09183  -0.03167  -0.42557  -0.03194  -0.42580  -0.02424  -0.73829  -0.02404  -0.73798  -0.02360  -0.73782  -0.02341  -0.73719  -0.02360  -0.73744  -0.02378  -0.73788  -0.02431  -0.73880  -0.02450  -0.73891  -0.03344  -0.42708  -0.03321  -0.42676  -0.03174  -0.42502  -0.03166  -0.42506  -0.02359  -0.73840  -0.02356  -0.73839  -0.02371  -0.73857  -0.02370  -0.73854  -0.02372  -0.73821  -0.02377  -0.73846  -0.02408  -0.73848  -0.02413  -0.73872  -0.03148  -0.42537  -0.03152  -0.42546  -0.04003  -0.67709  -0.04115  -0.67788  -0.04614  -0.65572  -0.04638  -0.65562  -0.03942  -0.67631  -0.03920  -0.67597  -0.04604  -0.65551  -0.04555  -0.65544  -0.04530  -0.65427  -0.04568  -0.65449  -0.04020  -0.67699  -0.03997  -0.67674  -0.04685  -0.65635  -0.04606  -0.65594  -0.03973  -0.67661  -0.04024  -0.67696   0.03018  -0.37444   0.02885  -0.37647   0.02925  -0.37513   0.02780  -0.37741   0.03025  -0.37564   0.03038  -0.37521   0.03185  -0.37334   0.03206  -0.37299   0.03009  -0.37543   0.02951  -0.37609   0.03241  -0.37255   0.03188  -0.37299   0.02809  -0.37972   0.02956  -0.37755   0.02844  -0.37945   0.02977  -0.37748  -0.10637  -0.19122  -0.10744  -0.19225  -0.10702  -0.19265  -0.10711  -0.19244
 -9.88294  -0.04331  -0.43459  -0.05600  -0.11303  -0.05662  -0.11410  -0.05655  -0.11275  -0.05698  -0.11507  -0.11462  -0.09891  -0.11429  -0.09864  -0.11251  -0.09856  -0.11257  -0.09861  -0.11231  -0.09703  -0.11232  -0.09722  -0.11558  -0.10100  -0.11579  -0.10105  -0.11204  -0.09793  -0.11265  -0.09851  -0.11600  -0.10034  -0.11778  -0.10177  -0.11341  -0.09920  -0.11331  -0.09901  -0.11536  -0.09963  -0.11291  -0.09750  -0.03450  -0.42730  -0.03479  -0.42754  -0.02753  -0.73967  -0.02731  -0.73935  -0.02683  -0.73916  -0.02662  -0.73853  -0.02685  -0.73879  -0.02705  -0.73924  -0.02763  -0.74019  -0.02784  -0.74030  -0.03644  -0.42891  -0.03619  -0.42858  -0.03455  -0.42675  -0.03446  -0.42679  -0.02681  -0.73975  -0.02679  -0.73974  -0.02694  -0.73992  -0.02693  -0.73989  -0.02696  -0.73956  -0.02702  -0.73982  -0.02736  -0.73985  -0.02742  -0.74010  -0.03429  -0.42709  -0.03434  -0.42719  -0.04011  -0.67910  -0.04122  -0.67995  -0.04611  -0.65803  -0.04637  -0.65795  -0.03946  -0.67829  -0.03926  -0.67794  -0.04600  -0.65782  -0.04551  -0.65773  -0.04527  -0.65654  -0.04564  -0.65678  -0.04026  -0.67901  -0.04001  -0.67875  -0.04683  -0.65870  -0.04603  -0.65825  -0.03979  -0.67861  -0.04032  -0.67898   0.03011  -0.37293   0.02877  -0.37503   0.02917  -0.37366   0.02771  -0.37602   0.03017  -0.37413   0.03030  -0.37369   0.03179  -0.37174   0.03200  -0.37138   0.03002  -0.37392   0.02943  -0.37461   0.03236  -0.37093   0.03182  -0.37140   0.02796  -0.37832   0.02945  -0.37608   0.02833  -0.37803   0.02967  -0.37599  -0.12245  -0.19736  -0.12369  -0.19846  -0.12320  -0.19883  -0.12331  -0.19863
 -9.83278  -0.04425  -0.43681  -0.05537  -0.11581  -0.05598  -0.11691  -0.05590  -0.11555  -0.05633  -0.11789  -0.11280  -0.10457  -0.11248  -0.10428  -0.11074  -0.10411  -0.11080  -0.10417  -0.11055  -0.10258  -0.11055  -0.10277  -0.11374  -0.10671  -0.11395  -0.10677  -0.11027  -0.10346  -0.11089  -0.10408  -0.11416  -0.10607  -0.11590  -0.10759  -0.11163  -0.10480  -0.11152  -0.10461  -0.11353  -0.10533  -0.11113  -0.10307  -0.03600  -0.42911  -0.03631  -0.42936  -0.03027  -0.74119  -0.03004  -0.74086  -0.02953  -0.74065  -0.02931  -0.74000  -0.02959  -0.74027  -0.02980  -0.74074  -0.03041  -0.74171  -0.03063  -0.74184  -0.03805  -0.43082  -0.03777  -0.43047  -0.03602  -0.42856  -0.03593  -0.42859  -0.02951  -0.74123  -0.02948  -0.74121  -0.02962  -0.74141  -0.02962  -0.74138  -0.02966  -0.74105  -0.02973  -0.74131  -0.03009  -0.74136  -0.03016  -0.74161  -0.03578  -0.42889  -0.03583  -0.42899  -0.03845  -0.68103  -0.03949  -0.68193  -0.04395  -0.66024  -0.04420  -0.66017  -0.03778  -0.68019  -0.03762  -0.67983  -0.04381  -0.66001  -0.04334  -0.65990  -0.04312  -0.65870  -0.04347  -0.65896  -0.03856  -0.68094  -0.03831  -0.68067  -0.04463  -0.66094  -0.04387  -0.66045  -0.03812  -0.68052  -0.03866  -0.68092   0.02862  -0.37149   0.02733  -0.37366   0.02771  -0.37227   0.02629  -0.37470   0.02867  -0.37269   0.02879  -0.37225   0.03024  -0.37022   0.03044  -0.36985   0.02853  -0.37249   0.02796  -0.37321   0.03079  -0.36938   0.03028  -0.36988   0.02651  -0.37699   0.02796  -0.37467   0.02687  -0.37668   0.02817  -0.37457  -0.13680  -0.20423  -0.13821  -0.20539  -0.13764  -0.20574  -0.13776  -0.20554
 -9.78261  -0.04387  -0.43901  -0.05265  -0.11845  -0.05322  -0.11958  -0.05313  -0.11822  -0.05355  -0.12058  -0.10641  -0.10991  -0.10611  -0.10960  -0.10449  -0.10935  -0.10454  -0.10941  -0.10430  -0.10781  -0.10431  -0.10800  -0.10731  -0.11209  -0.10750  -0.11216  -0.10404  -0.10868  -0.10463  -0.10933  -0.10769  -0.11147  -0.10933  -0.11307  -0.10533  -0.11008  -0.10521  -0.10989  -0.10711  -0.11070  -0.10485  -0.10833  -0.03656  -0.43094  -0.03687  -0.43121  -0.03256  -0.74283  -0.03233  -0.74248  -0.03181  -0.74224  -0.03158  -0.74158  -0.03190  -0.74187  -0.03212  -0.74235  -0.03275  -0.74335  -0.03298  -0.74350  -0.03866  -0.43276  -0.03837  -0.43240  -0.03654  -0.43039  -0.03645  -0.43042  -0.03179  -0.74282  -0.03176  -0.74281  -0.03188  -0.74300  -0.03188  -0.74298  -0.03194  -0.74265  -0.03201  -0.74291  -0.03238  -0.74299  -0.03246  -0.74324  -0.03634  -0.43071  -0.03640  -0.43081  -0.03519  -0.68279  -0.03612  -0.68374  -0.03977  -0.66223  -0.04001  -0.66217  -0.03452  -0.68192  -0.03441  -0.68155  -0.03961  -0.66200  -0.03918  -0.66186  -0.03900  -0.66066  -0.03932  -0.66093  -0.03524  -0.68271  -0.03501  -0.68243  -0.04039  -0.66297  -0.03969  -0.66244  -0.03486  -0.68227  -0.03539  -0.68270   0.02595  -0.37019   0.02474  -0.37241   0.02510  -0.37101   0.02378  -0.37351   0.02598  -0.37138   0.02609  -0.37094   0.02744  -0.36885   0.02763  -0.36847   0.02586  -0.37120   0.02533  -0.37194   0.02797  -0.36798   0.02749  -0.36850   0.02395  -0.37579   0.02531  -0.37340   0.02429  -0.37546   0.02550  -0.37330  -0.15120  -0.21181  -0.15278  -0.21305  -0.15214  -0.21337  -0.15227  -0.21318
 -9.73244  -0.04305  -0.44117  -0.04947  -0.12093  -0.05001  -0.12209  -0.04990  -0.12072  -0.05031  -0.12310  -0.09722  -0.11479  -0.09696  -0.11447  -0.09551  -0.11415  -0.09555  -0.11421  -0.09530  -0.11259  -0.09532  -0.11278  -0.09807  -0.11701  -0.09825  -0.11709  -0.09509  -0.11345  -0.09564  -0.11412  -0.09840  -0.11641  -0.09989  -0.11809  -0.09628  -0.11491  -0.09616  -0.11471  -0.09786  -0.11561  -0.09580  -0.11314  -0.03719  -0.43281  -0.03749  -0.43309  -0.03497  -0.74458  -0.03473  -0.74423  -0.03420  -0.74396  -0.03398  -0.74328  -0.03434  -0.74359  -0.03456  -0.74408  -0.03520  -0.74512  -0.03544  -0.74527  -0.03933  -0.43473  -0.03902  -0.43436  -0.03713  -0.43225  -0.03704  -0.43228  -0.03418  -0.74454  -0.03415  -0.74452  -0.03426  -0.74472  -0.03426  -0.74469  -0.03434  -0.74438  -0.03441  -0.74464  -0.03479  -0.74473  -0.03487  -0.74499  -0.03696  -0.43256  -0.03702  -0.43267  -0.03092  -0.68434  -0.03171  -0.68533  -0.03425  -0.66395  -0.03447  -0.66390  -0.03027  -0.68344  -0.03021  -0.68307  -0.03407  -0.66371  -0.03369  -0.66356  -0.03356  -0.66234  -0.03383  -0.66263  -0.03092  -0.68426  -0.03069  -0.68397  -0.03478  -0.66471  -0.03418  -0.66416  -0.03060  -0.68381  -0.03110  -0.68426   0.02269  -0.36905   0.02160  -0.37133   0.02194  -0.36991   0.02074  -0.37247   0.02270  -0.37025   0.02281  -0.36980   0.02403  -0.36764   0.02420  -0.36725   0.02261  -0.37006   0.02214  -0.37083   0.02451  -0.36675   0.02407  -0.36729   0.02087  -0.37474   0.02209  -0.37230   0.02118  -0.37440   0.02227  -0.37218  -0.17009  -0.22035  -0.17189  -0.22168  -0.17116  -0.22195  -0.17131  -0.22177
 -9.68227  -0.04314  -0.44334  -0.04783  -0.12333  -0.04834  -0.12451  -0.04822  -0.12314  -0.04862  -0.12554  -0.08803  -0.11920  -0.08780  -0.11887  -0.08658  -0.11849  -0.08661  -0.11855  -0.08631  -0.11692  -0.08632  -0.11711  -0.08888  -0.12147  -0.08904  -0.12156  -0.08619  -0.11778  -0.08669  -0.11847  -0.08910  -0.12088  -0.09045  -0.12262  -0.08728  -0.11929  -0.08716  -0.11908  -0.08861  -0.12006  -0.08676  -0.11749  -0.03928  -0.43478  -0.03958  -0.43508  -0.03837  -0.74650  -0.03813  -0.74614  -0.03758  -0.74584  -0.03736  -0.74516  -0.03779  -0.74549  -0.03801  -0.74599  -0.03867  -0.74706  -0.03892  -0.74723  -0.04152  -0.43682  -0.04119  -0.43642  -0.03918  -0.43422  -0.03911  -0.43424  -0.03758  -0.74642  -0.03754  -0.74640  -0.03764  -0.74661  -0.03764  -0.74658  -0.03773  -0.74627  -0.03780  -0.74654  -0.03819  -0.74665  -0.03828  -0.74691  -0.03905  -0.43452  -0.03912  -0.43463  -0.02652  -0.68567  -0.02716  -0.68670  -0.02838  -0.66537  -0.02858  -0.66534  -0.02589  -0.68474  -0.02589  -0.68437  -0.02818  -0.66513  -0.02785  -0.66495  -0.02778  -0.66374  -0.02800  -0.66403  -0.02645  -0.68559  -0.02624  -0.68529  -0.02883  -0.66616  -0.02831  -0.66558  -0.02621  -0.68512  -0.02668  -0.68560   0.01964  -0.36807   0.01868  -0.37039   0.01897  -0.36896   0.01792  -0.37157   0.01964  -0.36926   0.01974  -0.36881   0.02082  -0.36660   0.02098  -0.36620   0.01957  -0.36908   0.01915  -0.36987   0.02125  -0.36569   0.02087  -0.36624   0.01801  -0.37384   0.01909  -0.37134   0.01828  -0.37348   0.01925  -0.37121  -0.20033  -0.23040  -0.20247  -0.23183  -0.20160  -0.23207  -0.20177  -0.23189
 -9.63211  -0.04565  -0.44563  -0.04944  -0.12581  -0.04997  -0.12702  -0.04982  -0.12564  -0.05024  -0.12806  -0.08186  -0.12331  -0.08165  -0.12297  -0.08070  -0.12254  -0.08073  -0.12260  -0.08028  -0.12095  -0.08030  -0.12114  -0.08282  -0.12563  -0.08296  -0.12572  -0.08033  -0.12181  -0.08081  -0.12253  -0.08285  -0.12503  -0.08410  -0.12684  -0.08135  -0.12337  -0.08123  -0.12316  -0.08241  -0.12419  -0.08070  -0.12154  -0.04435  -0.43700  -0.04466  -0.43732  -0.04379  -0.74870  -0.04354  -0.74832  -0.04296  -0.74800  -0.04273  -0.74730  -0.04325  -0.74766  -0.04349  -0.74817  -0.04417  -0.74928  -0.04445  -0.74946  -0.04678  -0.43916  -0.04642  -0.43875  -0.04422  -0.43644  -0.04415  -0.43645  -0.04298  -0.74858  -0.04295  -0.74856  -0.04303  -0.74877  -0.04303  -0.74874  -0.04313  -0.74843  -0.04321  -0.74870  -0.04363  -0.74884  -0.04373  -0.74910  -0.04410  -0.43674  -0.04418  -0.43685  -0.02285  -0.68682  -0.02337  -0.68787  -0.02323  -0.66654  -0.02342  -0.66651  -0.02223  -0.68585  -0.02229  -0.68549  -0.02300  -0.66628  -0.02271  -0.66609  -0.02271  -0.66488  -0.02289  -0.66518  -0.02272  -0.68673  -0.02253  -0.68642  -0.02360  -0.66734  -0.02317  -0.66674  -0.02256  -0.68625  -0.02301  -0.68675   0.01752  -0.36719   0.01667  -0.36956   0.01693  -0.36811   0.01598  -0.37076   0.01752  -0.36838   0.01760  -0.36792   0.01858  -0.36567   0.01872  -0.36526   0.01747  -0.36820   0.01709  -0.36901   0.01897  -0.36473   0.01862  -0.36531   0.01604  -0.37303   0.01700  -0.37049   0.01630  -0.37266   0.01715  -0.37035  -0.25018  -0.24295  -0.25287  -0.24452  -0.25177  -0.24470  -0.25198  -0.24454
 -9.58194  -0.05185  -0.44823  -0.05519  -0.12858  -0.05577  -0.12982  -0.05560  -0.12843  -0.05606  -0.13087  -0.08106  -0.12738  -0.08086  -0.12702  -0.08023  -0.12656  -0.08025  -0.12663  -0.07952  -0.12494  -0.07954  -0.12513  -0.08230  -0.12976  -0.08245  -0.12986  -0.07985  -0.12581  -0.08034  -0.12656  -0.08204  -0.12915  -0.08326  -0.13102  -0.08087  -0.12743  -0.08074  -0.12721  -0.08160  -0.12828  -0.07994  -0.12555  -0.05365  -0.43969  -0.05397  -0.44003  -0.05209  -0.75131  -0.05181  -0.75092  -0.05117  -0.75056  -0.05093  -0.74986  -0.05157  -0.75025  -0.05183  -0.75077  -0.05258  -0.75191  -0.05289  -0.75211  -0.05643  -0.44199  -0.05602  -0.44156  -0.05350  -0.43912  -0.05343  -0.43913  -0.05124  -0.75115  -0.05120  -0.75113  -0.05128  -0.75134  -0.05129  -0.75131  -0.05139  -0.75101  -0.05148  -0.75129  -0.05193  -0.75144  -0.05206  -0.75171  -0.05336  -0.43941  -0.05346  -0.43953  -0.02056  -0.68785  -0.02097  -0.68892  -0.01971  -0.66753  -0.01990  -0.66751  -0.01990  -0.68685  -0.02004  -0.68649  -0.01943  -0.66725  -0.01917  -0.66705  -0.01926  -0.66584  -0.01940  -0.66616  -0.02035  -0.68775  -0.02016  -0.68743  -0.02003  -0.66835  -0.01965  -0.66772  -0.02025  -0.68727  -0.02071  -0.68779   0.01679  -0.36635   0.01600  -0.36875   0.01623  -0.36730   0.01536  -0.36999   0.01678  -0.36754   0.01686  -0.36708   0.01776  -0.36477   0.01790  -0.36436   0.01675  -0.36736   0.01639  -0.36819   0.01814  -0.36382   0.01780  -0.36442   0.01539  -0.37226   0.01627  -0.36967   0.01564  -0.37188   0.01642  -0.36953  -0.32728  -0.25937  -0.33080  -0.26112  -0.32936  -0.26122  -0.32963  -0.26107
 -9.53177  -0.06233  -0.45136  -0.06484  -0.13183  -0.06552  -0.13311  -0.06529  -0.13170  -0.06584  -0.13418  -0.08667  -0.13172  -0.08647  -0.13136  -0.08622  -0.13089  -0.08624  -0.13095  -0.08506  -0.12921  -0.08509  -0.12940  -0.08842  -0.13419  -0.08858  -0.13430  -0.08581  -0.13012  -0.08634  -0.13089  -0.08771  -0.13355  -0.08901  -0.13548  -0.08691  -0.13179  -0.08676  -0.13156  -0.08726  -0.13266  -0.08551  -0.12984  -0.06782  -0.44310  -0.06817  -0.44345  -0.06353  -0.75450  -0.06322  -0.75409  -0.06249  -0.75370  -0.06223  -0.75298  -0.06305  -0.75341  -0.06334  -0.75395  -0.06416  -0.75513  -0.06452  -0.75535  -0.07109  -0.44556  -0.07061  -0.44511  -0.06767  -0.44252  -0.06760  -0.44253  -0.06263  -0.75429  -0.06259  -0.75427  -0.06269  -0.75449  -0.06271  -0.75446  -0.06279  -0.75416  -0.06289  -0.75444  -0.06340  -0.75462  -0.06354  -0.75490  -0.06747  -0.44280  -0.06759  -0.44292  -0.01987  -0.68885  -0.02021  -0.68993  -0.01849  -0.66846  -0.01870  -0.66845  -0.01914  -0.68781  -0.01936  -0.68746  -0.01814  -0.66816  -0.01788  -0.66795  -0.01809  -0.66675  -0.01821  -0.66707  -0.01958  -0.68873  -0.01939  -0.68840  -0.01878  -0.66929  -0.01842  -0.66865  -0.01952  -0.68825  -0.02003  -0.68880   0.01748  -0.36547   0.01672  -0.36792   0.01693  -0.36645   0.01609  -0.36919   0.01748  -0.36666   0.01756  -0.36620   0.01845  -0.36385   0.01859  -0.36343   0.01748  -0.36649   0.01710  -0.36733   0.01882  -0.36288   0.01848  -0.36349   0.01609  -0.37145   0.01694  -0.36882   0.01636  -0.37106   0.01710  -0.36867  -0.43557  -0.28122  -0.44025  -0.28320  -0.43834  -0.28321  -0.43870  -0.28308
 -9.48161  -0.07668  -0.45520  -0.07692  -0.13569  -0.07773  -0.13701  -0.07741  -0.13559  -0.07808  -0.13809  -0.09827  -0.13665  -0.09806  -0.13628  -0.09823  -0.13582  -0.09824  -0.13588  -0.09648  -0.13405  -0.09652  -0.13424  -0.10071  -0.13924  -0.10089  -0.13936  -0.09776  -0.13502  -0.09837  -0.13582  -0.09944  -0.13854  -0.10090  -0.14055  -0.09902  -0.13675  -0.09883  -0.13652  -0.09895  -0.13763  -0.09699  -0.13471  -0.08644  -0.44743  -0.08683  -0.44780  -0.07745  -0.75839  -0.07710  -0.75796  -0.07626  -0.75752  -0.07599  -0.75679  -0.07702  -0.75727  -0.07735  -0.75783  -0.07826  -0.75906  -0.07868  -0.75929  -0.09032  -0.45009  -0.08976  -0.44961  -0.08630  -0.44685  -0.08623  -0.44685  -0.07652  -0.75813  -0.07648  -0.75810  -0.07660  -0.75833  -0.07663  -0.75830  -0.07667  -0.75801  -0.07678  -0.75829  -0.07735  -0.75850  -0.07753  -0.75879  -0.08602  -0.44711  -0.08617  -0.44724  -0.02070  -0.68989  -0.02096  -0.69098  -0.01992  -0.66946  -0.02015  -0.66946  -0.01983  -0.68881  -0.02016  -0.68847  -0.01948  -0.66914  -0.01920  -0.66891  -0.01955  -0.66773  -0.01967  -0.66806  -0.02032  -0.68975  -0.02010  -0.68941  -0.02020  -0.67030  -0.01984  -0.66964  -0.02028  -0.68927  -0.02086  -0.68984   0.01928  -0.36450   0.01851  -0.36699   0.01871  -0.36551   0.01785  -0.36829   0.01928  -0.36570   0.01937  -0.36522   0.02027  -0.36283   0.02042  -0.36241   0.01930  -0.36552   0.01891  -0.36638   0.02067  -0.36184   0.02030  -0.36247   0.01782  -0.37056   0.01868  -0.36788   0.01812  -0.37015   0.01886  -0.36772  -0.57182  -0.30990  -0.57793  -0.31219  -0.57544  -0.31208  -0.57591  -0.31197
 -9.43144  -0.09338  -0.45989  -0.08893  -0.14015  -0.08987  -0.14151  -0.08945  -0.14007  -0.09024  -0.14262  -0.11423  -0.14239  -0.11400  -0.14200  -0.11453  -0.14156  -0.11454  -0.14163  -0.11219  -0.13967  -0.11223  -0.13987  -0.11740  -0.14513  -0.11761  -0.14526  -0.11398  -0.14074  -0.11469  -0.14158  -0.11558  -0.14434  -0.11725  -0.14643  -0.11544  -0.14255  -0.11523  -0.14230  -0.11503  -0.14340  -0.11278  -0.14036  -0.10773  -0.45284  -0.10815  -0.45323  -0.09214  -0.76301  -0.09175  -0.76256  -0.09080  -0.76208  -0.09052  -0.76133  -0.09178  -0.76188  -0.09215  -0.76245  -0.09313  -0.76373  -0.09361  -0.76399  -0.11224  -0.45572  -0.11160  -0.45521  -0.10762  -0.45224  -0.10755  -0.45225  -0.09122  -0.76271  -0.09115  -0.76268  -0.09132  -0.76291  -0.09137  -0.76289  -0.09134  -0.76259  -0.09145  -0.76288  -0.09209  -0.76312  -0.09230  -0.76342  -0.10722  -0.45249  -0.10740  -0.45263  -0.02274  -0.69103  -0.02291  -0.69213  -0.02396  -0.67066  -0.02423  -0.67067  -0.02169  -0.68989  -0.02215  -0.68959  -0.02341  -0.67032  -0.02309  -0.67007  -0.02361  -0.66892  -0.02375  -0.66925  -0.02225  -0.69087  -0.02200  -0.69051  -0.02424  -0.67152  -0.02386  -0.67084  -0.02220  -0.69038  -0.02290  -0.69099   0.02155  -0.36342   0.02076  -0.36595   0.02094  -0.36446   0.02006  -0.36729   0.02155  -0.36461   0.02165  -0.36414   0.02258  -0.36170   0.02274  -0.36126   0.02161  -0.36443   0.02119  -0.36532   0.02301  -0.36069   0.02262  -0.36134   0.01998  -0.36956   0.02087  -0.36684   0.02033  -0.36913   0.02108  -0.36667  -0.72348  -0.34620  -0.73116  -0.34887  -0.72805  -0.34860  -0.72863  -0.34853
 -9.38127  -0.11004  -0.46541  -0.09794  -0.14506  -0.09898  -0.14648  -0.09844  -0.14501  -0.09937  -0.14761  -0.13219  -0.14902  -0.13194  -0.14862  -0.13257  -0.14821  -0.13258  -0.14828  -0.12988  -0.14619  -0.12993  -0.14639  -0.13587  -0.15195  -0.13610  -0.15209  -0.13193  -0.14736  -0.13276  -0.14824  -0.13374  -0.15105  -0.13566  -0.15323  -0.13362  -0.14925  -0.13337  -0.14899  -0.13312  -0.15008  -0.13056  -0.14691  -0.12867  -0.45929  -0.12911  -0.45971  -0.10516  -0.76828  -0.10476  -0.76782  -0.10371  -0.76728  -0.10344  -0.76652  -0.10491  -0.76714  -0.10531  -0.76773  -0.10632  -0.76906  -0.10686  -0.76935  -0.13372  -0.46243  -0.13301  -0.46188  -0.12861  -0.45870  -0.12853  -0.45870  -0.10430  -0.76794  -0.10422  -0.76791  -0.10445  -0.76815  -0.10450  -0.76813  -0.10438  -0.76783  -0.10449  -0.76812  -0.10519  -0.76840  -0.10543  -0.76871  -0.12807  -0.45892  -0.12827  -0.45907  -0.02560  -0.69231  -0.02568  -0.69342  -0.03005  -0.67216  -0.03036  -0.67220  -0.02436  -0.69112  -0.02497  -0.69084  -0.02939  -0.67179  -0.02903  -0.67153  -0.02973  -0.67041  -0.02991  -0.67075  -0.02502  -0.69212  -0.02473  -0.69175  -0.03034  -0.67304  -0.02994  -0.67234  -0.02493  -0.69163  -0.02575  -0.69228   0.02356  -0.36224   0.02275  -0.36480   0.02290  -0.36331   0.02200  -0.36618   0.02356  -0.36343   0.02366  -0.36295   0.02462  -0.36046   0.02478  -0.36002   0.02365  -0.36325   0.02322  -0.36415   0.02509  -0.35943   0.02466  -0.36010   0.02188  -0.36846   0.02281  -0.36569   0.02228  -0.36801   0.02305  -0.36551  -0.87023  -0.38986  -0.87939  -0.39299  -0.87570  -0.39254  -0.87640  -0.39249
 -9.33110  -0.12401  -0.47163  -0.10161  -0.15016  -0.10271  -0.15163  -0.10204  -0.15013  -0.10307  -0.15278  -0.14943  -0.15651  -0.14917  -0.15610  -0.14941  -0.15571  -0.14941  -0.15577  -0.14686  -0.15356  -0.14692  -0.15376  -0.15308  -0.15963  -0.15335  -0.15978  -0.14868  -0.15482  -0.14963  -0.15574  -0.15117  -0.15863  -0.15332  -0.16093  -0.15060  -0.15680  -0.15029  -0.15653  -0.15049  -0.15763  -0.14762  -0.15432  -0.14576  -0.46660  -0.14622  -0.46704  -0.11420  -0.77401  -0.11379  -0.77353  -0.11269  -0.77294  -0.11245  -0.77216  -0.11408  -0.77286  -0.11451  -0.77348  -0.11549  -0.77486  -0.11606  -0.77517  -0.15117  -0.47002  -0.15043  -0.46943  -0.14576  -0.46601  -0.14568  -0.46600  -0.11344  -0.77363  -0.11334  -0.77359  -0.11364  -0.77385  -0.11371  -0.77383  -0.11349  -0.77352  -0.11358  -0.77382  -0.11431  -0.77414  -0.11456  -0.77446  -0.14510  -0.46620  -0.14531  -0.46636  -0.02890  -0.69376  -0.02888  -0.69487  -0.03701  -0.67402  -0.03735  -0.67407  -0.02748  -0.69250  -0.02826  -0.69226  -0.03626  -0.67361  -0.03584  -0.67333  -0.03673  -0.67225  -0.03695  -0.67260  -0.02826  -0.69354  -0.02792  -0.69315  -0.03731  -0.67491  -0.03689  -0.67419  -0.02811  -0.69304  -0.02905  -0.69374   0.02462  -0.36101   0.02383  -0.36361   0.02395  -0.36211   0.02305  -0.36503   0.02463  -0.36220   0.02474  -0.36171   0.02570  -0.35917   0.02585  -0.35873   0.02477  -0.36200   0.02434  -0.36293   0.02619  -0.35812   0.02576  -0.35881   0.02290  -0.36731   0.02384  -0.36449   0.02334  -0.36684   0.02412  -0.36430  -0.99003  -0.43952  -1.00031  -0.44317  -0.99621  -0.44251  -0.99699  -0.44251
 -9.28094  -0.13327  -0.47832  -0.09936  -0.15515  -0.10043  -0.15667  -0.09965  -0.15513  -0.10075  -0.15783  -0.16313  -0.16470  -0.16285  -0.16427  -0.16211  -0.16384  -0.16210  -0.16391  -0.16036  -0.16160  -0.16042  -0.16181  -0.16605  -0.16796  -0.16634  -0.16813  -0.16131  -0.16291  -0.16236  -0.16389  -0.16501  -0.16691  -0.16735  -0.16932  -0.16340  -0.16500  -0.16305  -0.16471  -0.16429  -0.16587  -0.16119  -0.16241  -0.15638  -0.47445  -0.15683  -0.47491  -0.11795  -0.77993  -0.11756  -0.77943  -0.11645  -0.77878  -0.11625  -0.77800  -0.11798  -0.77878  -0.11840  -0.77942  -0.11931  -0.78084  -0.11990  -0.78119  -0.16190  -0.47814  -0.16116  -0.47751  -0.15642  -0.47386  -0.15633  -0.47385  -0.11733  -0.77952  -0.11720  -0.77947  -0.11758  -0.77975  -0.11765  -0.77974  -0.11734  -0.77941  -0.11740  -0.77971  -0.11813  -0.78006  -0.11840  -0.78040  -0.15566  -0.47400  -0.15587  -0.47418  -0.03222  -0.69538  -0.03209  -0.69648  -0.04318  -0.67619  -0.04356  -0.67626  -0.03066  -0.69403  -0.03156  -0.69384  -0.04236  -0.67573  -0.04191  -0.67543  -0.04296  -0.67441  -0.04322  -0.67477  -0.03153  -0.69512  -0.03116  -0.69472  -0.04349  -0.67709  -0.04307  -0.67635  -0.03131  -0.69461  -0.03235  -0.69536   0.02434  -0.35978   0.02358  -0.36243   0.02367  -0.36092   0.02279  -0.36388   0.02435  -0.36097   0.02446  -0.36048   0.02539  -0.35790   0.02552  -0.35744   0.02453  -0.36077   0.02413  -0.36172   0.02590  -0.35682   0.02546  -0.35753   0.02263  -0.36618   0.02356  -0.36331   0.02310  -0.36568   0.02387  -0.36310  -1.06754  -0.49308  -1.07843  -0.49728  -1.07414  -0.49640  -1.07497  -0.49644