ESCALE ; pCOOP file generated by LOBSTER. Energy is shifted such that the Fermi level lies at 0 eV.
        81          1        301  -1.62824e+00   1.34219e+01   8.40521e+00 
Average
No.1:Si1->Fe9(2.2635382608192618)
No.2:Si2->Fe10(2.2635382608192618)
No.3:Si3->Fe11(2.2635382608192618)
No.4:Si4->Fe12(2.2635382608192618)
No.5:Si5->Fe10(2.36196509659238)
No.6:Si5->Fe10(2.36196509659238)
No.7:Si5->Fe11(2.370397563484814)
No.8:Si5->Fe11(2.370397563484814)
No.9:Si6->Fe9(2.3619650965923169)
No.10:Si6->Fe9(2.3619650965923169)
No.11:Si6->Fe12(2.3703975634848771)
No.12:Si6->Fe12(2.3703975634848771)
No.13:Si7->Fe9(2.3703975634848771)
No.14:Si7->Fe9(2.3703975634848771)
No.15:Si7->Fe12(2.3619650965923169)
No.16:Si7->Fe12(2.3619650965923169)
No.17:Si8->Fe10(2.370397563484814)
No.18:Si8->Fe10(2.370397563484814)
No.19:Si8->Fe11(2.36196509659238)
No.20:Si8->Fe11(2.36196509659238)
No.21:Si1->Ce15(3.2320628828271598)
No.22:Si1->Ce15(3.2320628828271598)
No.23:Si1->Ce16(3.0770786512221622)
No.24:Si1->Ce16(3.0770786512221622)
No.25:Si1->Ce16(3.0770786512221622)
No.26:Si1->Ce16(3.0770786512221622)
No.27:Si2->Ce15(3.0770786512221622)
No.28:Si2->Ce15(3.0770786512221622)
No.29:Si2->Ce15(3.0770786512221622)
No.30:Si2->Ce15(3.0770786512221622)
No.31:Si2->Ce16(3.2320628828271598)
No.32:Si2->Ce16(3.2320628828271598)
No.33:Si3->Ce13(3.2320628828271598)
No.34:Si3->Ce13(3.2320628828271598)
No.35:Si3->Ce14(3.0770786512221622)
No.36:Si3->Ce14(3.0770786512221622)
No.37:Si3->Ce14(3.0770786512221622)
No.38:Si3->Ce14(3.0770786512221622)
No.39:Si4->Ce13(3.0770786512221626)
No.40:Si4->Ce13(3.0770786512221626)
No.41:Si4->Ce13(3.0770786512221626)
No.42:Si4->Ce13(3.0770786512221626)
No.43:Si4->Ce14(3.2320628828271594)
No.44:Si4->Ce14(3.2320628828271594)
No.45:Si5->Ce14(3.0735374565718048)
No.46:Si5->Ce14(3.0735374565718048)
No.47:Si5->Ce15(3.0881315226021031)
No.48:Si5->Ce15(3.0881315226021031)
No.49:Si6->Ce13(3.0735374565718954)
No.50:Si6->Ce13(3.0735374565718954)
No.51:Si6->Ce16(3.0881315226020125)
No.52:Si6->Ce16(3.0881315226020125)
No.53:Si7->Ce13(3.0881315226020125)
No.54:Si7->Ce13(3.0881315226020125)
No.55:Si7->Ce16(3.0735374565718954)
No.56:Si7->Ce16(3.0735374565718954)
No.57:Si8->Ce14(3.0881315226021031)
No.58:Si8->Ce14(3.0881315226021031)
No.59:Si8->Ce15(3.0735374565718048)
No.60:Si8->Ce15(3.0735374565718048)
No.61:Fe9->Ce16(3.0437049389134678)
No.62:Fe9->Ce16(3.0437049389134678)
No.63:Fe9->Ce16(3.0437049389134678)
No.64:Fe9->Ce16(3.0437049389134678)
No.65:Fe10->Ce15(3.0437049389134683)
No.66:Fe10->Ce15(3.0437049389134683)
No.67:Fe10->Ce15(3.0437049389134683)
No.68:Fe10->Ce15(3.0437049389134683)
No.69:Fe11->Ce14(3.0437049389134683)
No.70:Fe11->Ce14(3.0437049389134683)
No.71:Fe11->Ce14(3.0437049389134683)
No.72:Fe11->Ce14(3.0437049389134683)
No.73:Fe12->Ce13(3.0437049389134678)
No.74:Fe12->Ce13(3.0437049389134678)
No.75:Fe12->Ce13(3.0437049389134678)
No.76:Fe12->Ce13(3.0437049389134678)
No.77:Si1->Si2(2.4146524175649811)
No.78:Si1->Si2(2.4146524175649811)
No.79:Si3->Si4(2.4146524175649806)
No.80:Si3->Si4(2.4146524175649806)
-10.03344   0.00000   0.00091   0.00000   0.01168   0.00000   0.01168   0.00000   0.01168   0.00000   0.01168   0.00000   0.00598   0.00000   0.00598   0.00000   0.00618   0.00000   0.00618   0.00000   0.00598   0.00000   0.00598   0.00000   0.00618   0.00000   0.00618   0.00000   0.00618   0.00000   0.00618   0.00000   0.00598   0.00000   0.00598   0.00000   0.00618   0.00000   0.00618   0.00000   0.00598   0.00000   0.00598   0.00000   0.00243   0.00000   0.00241   0.00000   0.00233   0.00000   0.00233   0.00000   0.00234   0.00000   0.00232   0.00000   0.00231   0.00000   0.00233   0.00000   0.00233   0.00000   0.00233   0.00000   0.00242   0.00000   0.00242   0.00000   0.00242   0.00000   0.00242   0.00000   0.00235   0.00000   0.00233   0.00000   0.00231   0.00000   0.00232   0.00000   0.00232   0.00000   0.00233   0.00000   0.00233   0.00000   0.00233   0.00000   0.00242   0.00000   0.00242   0.00000  -0.00527   0.00000  -0.00528   0.00000  -0.00483   0.00000  -0.00485   0.00000  -0.00527   0.00000  -0.00528   0.00000  -0.00484   0.00000  -0.00484   0.00000  -0.00484   0.00000  -0.00484   0.00000  -0.00527   0.00000  -0.00528   0.00000  -0.00485   0.00000  -0.00484   0.00000  -0.00528   0.00000  -0.00527   0.00000  -0.00626   0.00000  -0.00626   0.00000  -0.00627   0.00000  -0.00625   0.00000  -0.00626   0.00000  -0.00627   0.00000  -0.00628   0.00000  -0.00624   0.00000  -0.00624   0.00000  -0.00627   0.00000  -0.00625   0.00000  -0.00630   0.00000  -0.00626   0.00000  -0.00625   0.00000  -0.00628   0.00000  -0.00627   0.00000   0.01326   0.00000   0.01326   0.00000   0.01326   0.00000   0.01326
 -9.98328   0.00267   0.00104   0.00326   0.01184   0.00326   0.01184   0.00326   0.01185   0.00326   0.01184   0.00970   0.00647   0.00970   0.00647   0.00981   0.00667   0.00981   0.00667   0.00970   0.00647   0.00970   0.00647   0.00981   0.00667   0.00981   0.00667   0.00981   0.00667   0.00981   0.00667   0.00970   0.00647   0.00970   0.00647   0.00981   0.00667   0.00981   0.00667   0.00970   0.00647   0.00970   0.00647  -0.00012   0.00243  -0.00011   0.00240   0.00011   0.00233   0.00012   0.00234   0.00012   0.00234   0.00013   0.00233   0.00013   0.00232   0.00014   0.00234   0.00012   0.00233   0.00012   0.00234  -0.00013   0.00241  -0.00011   0.00241  -0.00011   0.00242  -0.00012   0.00242   0.00012   0.00236   0.00011   0.00234   0.00014   0.00232   0.00013   0.00232   0.00014   0.00233   0.00013   0.00233   0.00012   0.00233   0.00011   0.00234  -0.00011   0.00241  -0.00012   0.00241   0.00017  -0.00526   0.00019  -0.00527   0.00048  -0.00481   0.00049  -0.00483   0.00019  -0.00526   0.00017  -0.00527   0.00048  -0.00482   0.00049  -0.00482   0.00049  -0.00482   0.00048  -0.00482   0.00017  -0.00526   0.00019  -0.00527   0.00049  -0.00482   0.00048  -0.00481   0.00019  -0.00527   0.00017  -0.00526  -0.00056  -0.00629  -0.00056  -0.00629  -0.00055  -0.00630  -0.00054  -0.00628  -0.00055  -0.00629  -0.00054  -0.00630  -0.00056  -0.00631  -0.00056  -0.00627  -0.00056  -0.00627  -0.00056  -0.00629  -0.00054  -0.00628  -0.00055  -0.00633  -0.00054  -0.00628  -0.00055  -0.00628  -0.00056  -0.00631  -0.00056  -0.00629   0.01183   0.01385   0.01182   0.01385   0.01183   0.01385   0.01182   0.01385
 -9.93311   0.00300   0.00119   0.00344   0.01202   0.00344   0.01202   0.00344   0.01202   0.00344   0.01202   0.01033   0.00699   0.01033   0.00699   0.01045   0.00720   0.01045   0.00719   0.01033   0.00699   0.01033   0.00699   0.01045   0.00720   0.01045   0.00719   0.01045   0.00719   0.01045   0.00719   0.01033   0.00699   0.01033   0.00698   0.01045   0.00720   0.01045   0.00719   0.01033   0.00699   0.01033   0.00699  -0.00005   0.00242  -0.00004   0.00240   0.00019   0.00234   0.00020   0.00235   0.00021   0.00235   0.00022   0.00234   0.00022   0.00233   0.00023   0.00235   0.00020   0.00234   0.00021   0.00235  -0.00006   0.00241  -0.00005   0.00241  -0.00004   0.00241  -0.00005   0.00241   0.00021   0.00237   0.00020   0.00235   0.00022   0.00233   0.00022   0.00233   0.00022   0.00234   0.00021   0.00234   0.00021   0.00234   0.00020   0.00235  -0.00004   0.00241  -0.00005   0.00241   0.00042  -0.00524   0.00044  -0.00524   0.00072  -0.00477   0.00073  -0.00479   0.00044  -0.00523   0.00042  -0.00525   0.00072  -0.00478   0.00073  -0.00478   0.00073  -0.00478   0.00072  -0.00478   0.00042  -0.00524   0.00044  -0.00525   0.00073  -0.00479   0.00072  -0.00478   0.00044  -0.00525   0.00042  -0.00524  -0.00053  -0.00632  -0.00052  -0.00632  -0.00052  -0.00632  -0.00051  -0.00630  -0.00052  -0.00631  -0.00051  -0.00632  -0.00053  -0.00634  -0.00052  -0.00630  -0.00052  -0.00629  -0.00053  -0.00632  -0.00051  -0.00630  -0.00052  -0.00635  -0.00051  -0.00631  -0.00052  -0.00631  -0.00052  -0.00633  -0.00053  -0.00632   0.01399   0.01455   0.01398   0.01455   0.01399   0.01455   0.01398   0.01455
 -9.88294   0.00325   0.00135   0.00339   0.01219   0.00339   0.01219   0.00339   0.01219   0.00339   0.01219   0.01058   0.00752   0.01058   0.00752   0.01069   0.00773   0.01070   0.00773   0.01058   0.00752   0.01058   0.00752   0.01069   0.00773   0.01070   0.00773   0.01070   0.00773   0.01069   0.00773   0.01058   0.00752   0.01058   0.00752   0.01070   0.00773   0.01069   0.00773   0.01058   0.00752   0.01058   0.00752   0.00003   0.00242   0.00004   0.00240   0.00031   0.00236   0.00032   0.00236   0.00032   0.00237   0.00033   0.00236   0.00033   0.00235   0.00034   0.00237   0.00032   0.00236   0.00033   0.00236   0.00001   0.00241   0.00002   0.00241   0.00003   0.00241   0.00002   0.00241   0.00033   0.00238   0.00032   0.00236   0.00034   0.00235   0.00033   0.00235   0.00034   0.00236   0.00033   0.00236   0.00032   0.00236   0.00031   0.00236   0.00003   0.00241   0.00002   0.00241   0.00071  -0.00521   0.00074  -0.00521   0.00099  -0.00472   0.00101  -0.00474   0.00074  -0.00520   0.00071  -0.00521   0.00099  -0.00473   0.00101  -0.00473   0.00101  -0.00473   0.00099  -0.00473   0.00071  -0.00521   0.00074  -0.00521   0.00101  -0.00474   0.00099  -0.00473   0.00074  -0.00521   0.00071  -0.00521  -0.00045  -0.00634  -0.00044  -0.00634  -0.00044  -0.00635  -0.00043  -0.00633  -0.00044  -0.00633  -0.00043  -0.00634  -0.00045  -0.00636  -0.00044  -0.00632  -0.00044  -0.00632  -0.00045  -0.00634  -0.00043  -0.00632  -0.00044  -0.00637  -0.00043  -0.00633  -0.00044  -0.00633  -0.00044  -0.00636  -0.00045  -0.00634   0.01597   0.01535   0.01597   0.01536   0.01597   0.01535   0.01597   0.01535
 -9.83278   0.00339   0.00152   0.00309   0.01234   0.00309   0.01234   0.00309   0.01234   0.00309   0.01234   0.01035   0.00804   0.01036   0.00804   0.01046   0.00826   0.01046   0.00825   0.01036   0.00804   0.01035   0.00804   0.01046   0.00826   0.01046   0.00825   0.01046   0.00826   0.01046   0.00826   0.01035   0.00804   0.01036   0.00804   0.01046   0.00826   0.01046   0.00825   0.01036   0.00804   0.01035   0.00804   0.00011   0.00243   0.00012   0.00241   0.00046   0.00238   0.00046   0.00238   0.00047   0.00239   0.00048   0.00238   0.00048   0.00237   0.00049   0.00239   0.00047   0.00238   0.00048   0.00239   0.00009   0.00242   0.00010   0.00242   0.00011   0.00242   0.00010   0.00242   0.00048   0.00241   0.00047   0.00239   0.00049   0.00237   0.00048   0.00238   0.00048   0.00238   0.00047   0.00238   0.00047   0.00238   0.00046   0.00239   0.00012   0.00242   0.00011   0.00242   0.00103  -0.00515   0.00105  -0.00515   0.00126  -0.00466   0.00128  -0.00468   0.00105  -0.00514   0.00103  -0.00516   0.00126  -0.00467   0.00128  -0.00467   0.00128  -0.00467   0.00126  -0.00467   0.00103  -0.00516   0.00105  -0.00516   0.00128  -0.00467   0.00126  -0.00466   0.00105  -0.00516   0.00103  -0.00515  -0.00033  -0.00636  -0.00032  -0.00635  -0.00031  -0.00636  -0.00030  -0.00634  -0.00031  -0.00635  -0.00030  -0.00636  -0.00033  -0.00637  -0.00031  -0.00634  -0.00031  -0.00633  -0.00033  -0.00636  -0.00030  -0.00634  -0.00031  -0.00639  -0.00030  -0.00635  -0.00031  -0.00634  -0.00032  -0.00637  -0.00033  -0.00636   0.01768   0.01624   0.01768   0.01624   0.01768   0.01624   0.01768   0.01624
 -9.78261   0.00345   0.00170   0.00263   0.01247   0.00263   0.01247   0.00263   0.01248   0.00263   0.01247   0.00971   0.00852   0.00972   0.00852   0.00979   0.00875   0.00980   0.00875   0.00972   0.00853   0.00971   0.00852   0.00979   0.00875   0.00980   0.00875   0.00980   0.00875   0.00979   0.00875   0.00971   0.00852   0.00972   0.00852   0.00980   0.00875   0.00979   0.00875   0.00972   0.00852   0.00971   0.00852   0.00023   0.00244   0.00024   0.00242   0.00065   0.00241   0.00066   0.00242   0.00066   0.00243   0.00067   0.00241   0.00067   0.00241   0.00068   0.00243   0.00066   0.00242   0.00067   0.00242   0.00021   0.00243   0.00022   0.00243   0.00022   0.00243   0.00021   0.00243   0.00067   0.00244   0.00066   0.00242   0.00068   0.00240   0.00067   0.00241   0.00067   0.00241   0.00066   0.00242   0.00066   0.00242   0.00065   0.00242   0.00023   0.00243   0.00022   0.00243   0.00131  -0.00509   0.00133  -0.00509   0.00147  -0.00459   0.00149  -0.00460   0.00133  -0.00508   0.00131  -0.00509   0.00147  -0.00459   0.00150  -0.00459   0.00149  -0.00459   0.00147  -0.00460   0.00131  -0.00509   0.00133  -0.00509   0.00149  -0.00460   0.00147  -0.00459   0.00133  -0.00509   0.00131  -0.00509  -0.00018  -0.00637  -0.00017  -0.00636  -0.00017  -0.00637  -0.00016  -0.00635  -0.00017  -0.00636  -0.00016  -0.00637  -0.00018  -0.00638  -0.00017  -0.00634  -0.00017  -0.00634  -0.00018  -0.00637  -0.00016  -0.00635  -0.00017  -0.00640  -0.00016  -0.00636  -0.00017  -0.00635  -0.00017  -0.00638  -0.00018  -0.00637   0.01931   0.01721   0.01930   0.01721   0.01931   0.01721   0.01930   0.01721
 -9.73244   0.00348   0.00187   0.00215   0.01258   0.00215   0.01258   0.00215   0.01258   0.00215   0.01258   0.00885   0.00897   0.00885   0.00897   0.00890   0.00919   0.00891   0.00919   0.00885   0.00897   0.00885   0.00897   0.00890   0.00919   0.00891   0.00919   0.00891   0.00919   0.00890   0.00919   0.00885   0.00897   0.00885   0.00897   0.00891   0.00920   0.00890   0.00919   0.00885   0.00897   0.00885   0.00897   0.00042   0.00246   0.00042   0.00244   0.00090   0.00246   0.00091   0.00246   0.00091   0.00247   0.00092   0.00246   0.00093   0.00245   0.00093   0.00248   0.00092   0.00246   0.00093   0.00247   0.00040   0.00245   0.00040   0.00245   0.00041   0.00245   0.00040   0.00245   0.00092   0.00249   0.00092   0.00246   0.00093   0.00245   0.00092   0.00246   0.00092   0.00246   0.00092   0.00246   0.00091   0.00246   0.00091   0.00247   0.00042   0.00245   0.00041   0.00245   0.00153  -0.00501   0.00155  -0.00501   0.00159  -0.00451   0.00161  -0.00452   0.00155  -0.00500   0.00153  -0.00502   0.00160  -0.00451   0.00161  -0.00451   0.00161  -0.00451   0.00159  -0.00452   0.00153  -0.00501   0.00155  -0.00501   0.00161  -0.00452   0.00159  -0.00451   0.00155  -0.00501   0.00153  -0.00501  -0.00005  -0.00637  -0.00004  -0.00637  -0.00004  -0.00637  -0.00003  -0.00635  -0.00004  -0.00636  -0.00003  -0.00637  -0.00005  -0.00639  -0.00004  -0.00635  -0.00004  -0.00634  -0.00005  -0.00637  -0.00003  -0.00635  -0.00004  -0.00640  -0.00003  -0.00636  -0.00004  -0.00636  -0.00004  -0.00638  -0.00005  -0.00637   0.02137   0.01828   0.02137   0.01828   0.02137   0.01828   0.02137   0.01828
 -9.68227   0.00360   0.00205   0.00179   0.01267   0.00179   0.01267   0.00180   0.01267   0.00179   0.01267   0.00804   0.00937   0.00804   0.00937   0.00807   0.00960   0.00807   0.00960   0.00804   0.00937   0.00804   0.00937   0.00807   0.00960   0.00807   0.00960   0.00807   0.00960   0.00807   0.00960   0.00804   0.00937   0.00804   0.00937   0.00807   0.00960   0.00807   0.00960   0.00804   0.00937   0.00804   0.00937   0.00071   0.00250   0.00071   0.00248   0.00125   0.00252   0.00126   0.00253   0.00126   0.00254   0.00126   0.00252   0.00127   0.00252   0.00128   0.00254   0.00127   0.00253   0.00127   0.00253   0.00069   0.00248   0.00070   0.00248   0.00070   0.00249   0.00070   0.00249   0.00126   0.00255   0.00126   0.00253   0.00127   0.00251   0.00127   0.00252   0.00126   0.00252   0.00126   0.00252   0.00126   0.00253   0.00126   0.00253   0.00071   0.00248   0.00071   0.00249   0.00168  -0.00493   0.00169  -0.00492   0.00162  -0.00442   0.00163  -0.00444   0.00169  -0.00491   0.00168  -0.00493   0.00162  -0.00443   0.00163  -0.00443   0.00163  -0.00443   0.00162  -0.00443   0.00168  -0.00493   0.00169  -0.00493   0.00163  -0.00443   0.00162  -0.00443   0.00169  -0.00493   0.00168  -0.00493   0.00003  -0.00637   0.00004  -0.00636   0.00004  -0.00637   0.00005  -0.00635   0.00004  -0.00636   0.00005  -0.00636   0.00003  -0.00638   0.00004  -0.00634   0.00004  -0.00634   0.00004  -0.00637   0.00005  -0.00635   0.00004  -0.00640   0.00005  -0.00635   0.00004  -0.00635   0.00004  -0.00638   0.00003  -0.00637   0.02470   0.01952   0.02469   0.01952   0.02470   0.01952   0.02470   0.01952
 -9.63211   0.00393   0.00225   0.00166   0.01275   0.00166   0.01275   0.00166   0.01276   0.00166   0.01275   0.00758   0.00975   0.00758   0.00975   0.00759   0.00998   0.00760   0.00998   0.00758   0.00975   0.00758   0.00975   0.00759   0.00998   0.00760   0.00998   0.00760   0.00998   0.00759   0.00998   0.00758   0.00975   0.00758   0.00975   0.00760   0.00998   0.00759   0.00998   0.00758   0.00975   0.00758   0.00975   0.00116   0.00256   0.00115   0.00254   0.00173   0.00261   0.00173   0.00261   0.00174   0.00262   0.00173   0.00261   0.00175   0.00260   0.00174   0.00263   0.00174   0.00262   0.00174   0.00262   0.00114   0.00254   0.00114   0.00254   0.00114   0.00254   0.00115   0.00254   0.00173   0.00264   0.00174   0.00262   0.00174   0.00260   0.00174   0.00261   0.00173   0.00261   0.00174   0.00261   0.00173   0.00261   0.00173   0.00261   0.00115   0.00254   0.00115   0.00254   0.00179  -0.00484   0.00180  -0.00483   0.00158  -0.00435   0.00159  -0.00436   0.00180  -0.00482   0.00179  -0.00484   0.00158  -0.00435   0.00159  -0.00435   0.00159  -0.00435   0.00158  -0.00436   0.00179  -0.00484   0.00180  -0.00484   0.00159  -0.00436   0.00158  -0.00435   0.00180  -0.00484   0.00179  -0.00484   0.00006  -0.00636   0.00006  -0.00636   0.00006  -0.00637   0.00007  -0.00634   0.00006  -0.00636   0.00007  -0.00636   0.00006  -0.00638   0.00006  -0.00634   0.00006  -0.00634   0.00006  -0.00637   0.00007  -0.00634   0.00006  -0.00639   0.00007  -0.00635   0.00006  -0.00635   0.00006  -0.00638   0.00006  -0.00637   0.03027   0.02104   0.03027   0.02104   0.03027   0.02104   0.03027   0.02104
 -9.58194   0.00458   0.00248   0.00176   0.01284   0.00176   0.01284   0.00177   0.01285   0.00177   0.01284   0.00769   0.01014   0.00769   0.01014   0.00772   0.01037   0.00772   0.01037   0.00770   0.01014   0.00769   0.01014   0.00772   0.01037   0.00772   0.01037   0.00772   0.01037   0.00772   0.01037   0.00769   0.01014   0.00769   0.01014   0.00772   0.01037   0.00772   0.01037   0.00770   0.01014   0.00769   0.01014   0.00178   0.00265   0.00177   0.00263   0.00236   0.00273   0.00235   0.00273   0.00236   0.00274   0.00235   0.00273   0.00237   0.00272   0.00236   0.00275   0.00237   0.00273   0.00236   0.00274   0.00177   0.00263   0.00175   0.00263   0.00176   0.00263   0.00177   0.00263   0.00235   0.00275   0.00236   0.00273   0.00235   0.00272   0.00236   0.00272   0.00235   0.00273   0.00236   0.00273   0.00235   0.00273   0.00236   0.00273   0.00176   0.00263   0.00177   0.00263   0.00192  -0.00474   0.00193  -0.00474   0.00154  -0.00427   0.00154  -0.00428   0.00193  -0.00473   0.00192  -0.00475   0.00154  -0.00428   0.00154  -0.00427   0.00154  -0.00427   0.00154  -0.00428   0.00192  -0.00474   0.00193  -0.00474   0.00154  -0.00428   0.00154  -0.00427   0.00193  -0.00474   0.00192  -0.00474   0.00002  -0.00636   0.00002  -0.00636   0.00002  -0.00637   0.00002  -0.00634   0.00002  -0.00635   0.00002  -0.00636   0.00002  -0.00638   0.00002  -0.00634   0.00002  -0.00634   0.00002  -0.00637   0.00002  -0.00634   0.00002  -0.00639   0.00002  -0.00635   0.00002  -0.00635   0.00002  -0.00638   0.00002  -0.00637   0.03901   0.02300   0.03901   0.02300   0.03901   0.02300   0.03901   0.02300
 -9.53177   0.00561   0.00276   0.00205   0.01295   0.00206   0.01295   0.00206   0.01295   0.00206   0.01295   0.00847   0.01056   0.00847   0.01056   0.00855   0.01080   0.00855   0.01079   0.00847   0.01056   0.00847   0.01056   0.00855   0.01080   0.00855   0.01079   0.00855   0.01080   0.00855   0.01079   0.00847   0.01056   0.00847   0.01056   0.00855   0.01080   0.00855   0.01079   0.00847   0.01056   0.00847   0.01056   0.00257   0.00277   0.00255   0.00275   0.00313   0.00288   0.00311   0.00289   0.00313   0.00290   0.00311   0.00288   0.00313   0.00288   0.00311   0.00290   0.00313   0.00289   0.00312   0.00289   0.00256   0.00275   0.00254   0.00275   0.00255   0.00276   0.00257   0.00276   0.00311   0.00291   0.00313   0.00289   0.00311   0.00287   0.00313   0.00288   0.00311   0.00288   0.00313   0.00289   0.00311   0.00289   0.00313   0.00289   0.00255   0.00276   0.00257   0.00276   0.00211  -0.00464   0.00211  -0.00463   0.00158  -0.00419   0.00158  -0.00420   0.00210  -0.00462   0.00211  -0.00464   0.00158  -0.00420   0.00158  -0.00419   0.00157  -0.00419   0.00158  -0.00420   0.00211  -0.00464   0.00211  -0.00463   0.00158  -0.00420   0.00158  -0.00419   0.00210  -0.00464   0.00211  -0.00464  -0.00008  -0.00637  -0.00008  -0.00636  -0.00008  -0.00637  -0.00009  -0.00635  -0.00008  -0.00636  -0.00009  -0.00636  -0.00008  -0.00638  -0.00008  -0.00634  -0.00008  -0.00634  -0.00008  -0.00637  -0.00009  -0.00635  -0.00008  -0.00640  -0.00009  -0.00635  -0.00008  -0.00635  -0.00008  -0.00638  -0.00008  -0.00637   0.05141   0.02558   0.05141   0.02558   0.05141   0.02558   0.05141   0.02558
 -9.48161   0.00697   0.00311   0.00241   0.01307   0.00243   0.01307   0.00241   0.01307   0.00243   0.01307   0.00986   0.01106   0.00986   0.01106   0.01004   0.01130   0.01004   0.01130   0.00987   0.01106   0.00987   0.01106   0.01004   0.01130   0.01004   0.01130   0.01004   0.01130   0.01004   0.01130   0.00986   0.01106   0.00987   0.01106   0.01004   0.01130   0.01004   0.01130   0.00987   0.01106   0.00987   0.01106   0.00352   0.00295   0.00349   0.00293   0.00398   0.00308   0.00396   0.00309   0.00398   0.00310   0.00395   0.00308   0.00398   0.00308   0.00396   0.00310   0.00399   0.00309   0.00396   0.00309   0.00351   0.00293   0.00348   0.00293   0.00348   0.00294   0.00351   0.00294   0.00396   0.00311   0.00398   0.00309   0.00395   0.00307   0.00397   0.00308   0.00395   0.00308   0.00398   0.00309   0.00396   0.00308   0.00398   0.00309   0.00348   0.00293   0.00351   0.00294   0.00236  -0.00452   0.00234  -0.00451   0.00176  -0.00410   0.00174  -0.00411   0.00234  -0.00450   0.00236  -0.00452   0.00176  -0.00411   0.00175  -0.00411   0.00174  -0.00411   0.00176  -0.00411   0.00236  -0.00452   0.00234  -0.00452   0.00174  -0.00411   0.00176  -0.00411   0.00234  -0.00452   0.00236  -0.00452  -0.00021  -0.00638  -0.00023  -0.00637  -0.00022  -0.00638  -0.00024  -0.00636  -0.00022  -0.00637  -0.00023  -0.00638  -0.00021  -0.00639  -0.00023  -0.00636  -0.00023  -0.00635  -0.00021  -0.00638  -0.00024  -0.00636  -0.00022  -0.00641  -0.00023  -0.00637  -0.00022  -0.00636  -0.00023  -0.00639  -0.00021  -0.00638   0.06708   0.02894   0.06708   0.02894   0.06708   0.02894   0.06708   0.02894
 -9.43144   0.00854   0.00354   0.00267   0.01320   0.00271   0.01320   0.00267   0.01320   0.00271   0.01320   0.01172   0.01164   0.01172   0.01165   0.01204   0.01190   0.01203   0.01190   0.01172   0.01165   0.01172   0.01164   0.01203   0.01190   0.01203   0.01190   0.01203   0.01190   0.01204   0.01190   0.01172   0.01164   0.01172   0.01164   0.01203   0.01190   0.01203   0.01190   0.01172   0.01165   0.01172   0.01164   0.00454   0.00318   0.00450   0.00315   0.00483   0.00332   0.00480   0.00333   0.00481   0.00334   0.00478   0.00332   0.00482   0.00332   0.00479   0.00334   0.00484   0.00333   0.00481   0.00333   0.00452   0.00316   0.00448   0.00315   0.00450   0.00316   0.00454   0.00316   0.00480   0.00335   0.00483   0.00333   0.00478   0.00331   0.00481   0.00332   0.00479   0.00332   0.00482   0.00333   0.00480   0.00333   0.00483   0.00333   0.00448   0.00316   0.00452   0.00316   0.00264  -0.00439   0.00261  -0.00438   0.00209  -0.00400   0.00207  -0.00401   0.00260  -0.00437   0.00264  -0.00439   0.00210  -0.00400   0.00207  -0.00400   0.00207  -0.00400   0.00209  -0.00401   0.00264  -0.00439   0.00261  -0.00439   0.00207  -0.00401   0.00210  -0.00400   0.00260  -0.00439   0.00264  -0.00438  -0.00038  -0.00640  -0.00040  -0.00639  -0.00040  -0.00640  -0.00042  -0.00638  -0.00039  -0.00639  -0.00041  -0.00640  -0.00038  -0.00641  -0.00040  -0.00638  -0.00040  -0.00637  -0.00038  -0.00640  -0.00042  -0.00638  -0.00040  -0.00643  -0.00041  -0.00639  -0.00039  -0.00638  -0.00040  -0.00641  -0.00038  -0.00640   0.08452   0.03318   0.08452   0.03318   0.08452   0.03318   0.08452   0.03318
 -9.38127   0.01009   0.00404   0.00265   0.01333   0.00271   0.01334   0.00266   0.01334   0.00271   0.01334   0.01381   0.01234   0.01381   0.01234   0.01426   0.01262   0.01425   0.01262   0.01382   0.01234   0.01382   0.01234   0.01425   0.01262   0.01425   0.01262   0.01425   0.01262   0.01426   0.01262   0.01381   0.01234   0.01381   0.01234   0.01425   0.01262   0.01425   0.01262   0.01382   0.01234   0.01382   0.01234   0.00552   0.00346   0.00548   0.00343   0.00555   0.00360   0.00552   0.00360   0.00553   0.00362   0.00550   0.00360   0.00554   0.00360   0.00551   0.00362   0.00556   0.00361   0.00553   0.00361   0.00550   0.00343   0.00546   0.00343   0.00548   0.00344   0.00552   0.00344   0.00552   0.00363   0.00555   0.00361   0.00550   0.00359   0.00553   0.00360   0.00551   0.00360   0.00554   0.00361   0.00553   0.00360   0.00556   0.00361   0.00546   0.00343   0.00550   0.00344   0.00291  -0.00424   0.00285  -0.00424   0.00256  -0.00387   0.00252  -0.00388   0.00285  -0.00423   0.00290  -0.00425   0.00257  -0.00387   0.00252  -0.00388   0.00252  -0.00388   0.00256  -0.00388   0.00291  -0.00424   0.00285  -0.00424   0.00252  -0.00388   0.00257  -0.00387   0.00285  -0.00424   0.00290  -0.00424  -0.00056  -0.00642  -0.00058  -0.00642  -0.00058  -0.00643  -0.00061  -0.00641  -0.00058  -0.00642  -0.00061  -0.00643  -0.00055  -0.00644  -0.00058  -0.00640  -0.00058  -0.00640  -0.00056  -0.00643  -0.00061  -0.00641  -0.00058  -0.00646  -0.00061  -0.00642  -0.00058  -0.00641  -0.00058  -0.00644  -0.00055  -0.00643   0.10129   0.03826   0.10130   0.03826   0.10129   0.03826   0.10130   0.03826
 -9.33110   0.01138   0.00462   0.00223   0.01345   0.00231   0.01346   0.00223   0.01345   0.00231   0.01346   0.01587   0.01313   0.01586   0.01313   0.01638   0.01344   0.01637   0.01344   0.01587   0.01314   0.01588   0.01313   0.01637   0.01344   0.01636   0.01344   0.01637   0.01344   0.01638   0.01344   0.01587   0.01313   0.01586   0.01313   0.01636   0.01344   0.01637   0.01344   0.01587   0.01313   0.01588   0.01313   0.00636   0.00377   0.00632   0.00375   0.00606   0.00391   0.00604   0.00391   0.00603   0.00392   0.00601   0.00390   0.00605   0.00390   0.00602   0.00392   0.00608   0.00392   0.00605   0.00392   0.00633   0.00375   0.00629   0.00374   0.00632   0.00375   0.00636   0.00376   0.00603   0.00393   0.00606   0.00392   0.00601   0.00389   0.00603   0.00390   0.00602   0.00390   0.00605   0.00391   0.00605   0.00391   0.00608   0.00392   0.00629   0.00375   0.00633   0.00376   0.00312  -0.00408   0.00305  -0.00409   0.00307  -0.00371   0.00301  -0.00373   0.00304  -0.00408   0.00312  -0.00409   0.00308  -0.00372   0.00302  -0.00372   0.00301  -0.00372   0.00307  -0.00372   0.00312  -0.00408   0.00305  -0.00409   0.00302  -0.00373   0.00308  -0.00372   0.00304  -0.00409   0.00312  -0.00408  -0.00072  -0.00646  -0.00075  -0.00646  -0.00075  -0.00647  -0.00078  -0.00645  -0.00074  -0.00646  -0.00078  -0.00647  -0.00071  -0.00648  -0.00074  -0.00644  -0.00075  -0.00644  -0.00072  -0.00646  -0.00078  -0.00645  -0.00075  -0.00650  -0.00078  -0.00646  -0.00074  -0.00645  -0.00074  -0.00648  -0.00071  -0.00646   0.11474   0.04402   0.11475   0.04402   0.11474   0.04402   0.11475   0.04402
 -9.28094   0.01224   0.00523   0.00141   0.01352   0.00151   0.01353   0.00141   0.01352   0.00151   0.01353   0.01759   0.01402   0.01758   0.01402   0.01805   0.01435   0.01804   0.01434   0.01759   0.01402   0.01760   0.01402   0.01804   0.01434   0.01802   0.01434   0.01804   0.01434   0.01805   0.01435   0.01759   0.01402   0.01758   0.01402   0.01802   0.01434   0.01804   0.01434   0.01759   0.01402   0.01760   0.01402   0.00696   0.00412   0.00693   0.00409   0.00633   0.00422   0.00631   0.00422   0.00629   0.00423   0.00628   0.00421   0.00631   0.00422   0.00629   0.00423   0.00635   0.00424   0.00633   0.00423   0.00691   0.00410   0.00689   0.00409   0.00693   0.00410   0.00696   0.00411   0.00631   0.00425   0.00633   0.00423   0.00628   0.00421   0.00629   0.00422   0.00629   0.00422   0.00631   0.00423   0.00633   0.00422   0.00634   0.00423   0.00689   0.00409   0.00692   0.00410   0.00327  -0.00392   0.00318  -0.00393   0.00353  -0.00354   0.00346  -0.00356   0.00317  -0.00392   0.00326  -0.00393   0.00354  -0.00354   0.00347  -0.00355   0.00346  -0.00355   0.00353  -0.00355   0.00327  -0.00392   0.00318  -0.00393   0.00347  -0.00356   0.00354  -0.00354   0.00317  -0.00393   0.00326  -0.00392  -0.00082  -0.00650  -0.00085  -0.00650  -0.00086  -0.00651  -0.00090  -0.00650  -0.00085  -0.00650  -0.00089  -0.00651  -0.00081  -0.00652  -0.00085  -0.00648  -0.00085  -0.00648  -0.00082  -0.00650  -0.00090  -0.00649  -0.00086  -0.00654  -0.00089  -0.00650  -0.00085  -0.00649  -0.00085  -0.00652  -0.00081  -0.00650   0.12303   0.05019   0.12304   0.05019   0.12303   0.05019   0.12304   0.05019