  16  16   1   0
  0.1691589E+02  0.4035014E-09  0.1674191E-08  0.4006497E-09  0.5000000E-15
   1.0000000000000000E-004
  CAR 
 unknown system                          
     11.03864076    -27.82403918 1001      8.40520303      1.00000000
    -27.824  0.0000E+00  0.0000E+00
    -27.785  0.0000E+00  0.0000E+00
    -27.746  0.0000E+00  0.0000E+00
    -27.707  0.0000E+00  0.0000E+00
    -27.669  0.0000E+00  0.0000E+00
    -27.630  0.0000E+00  0.0000E+00
    -27.591  0.0000E+00  0.0000E+00
    -27.552  0.0000E+00  0.0000E+00
    -27.513  0.0000E+00  0.0000E+00
    -27.474  0.0000E+00  0.0000E+00
    -27.435 -0.2872E-26 -0.1116E-27
    -27.397 -0.8238E-25 -0.3313E-26
    -27.358 -0.1680E-23 -0.6860E-25
    -27.319 -0.3212E-22 -0.1317E-23
    -27.280 -0.5693E-21 -0.2344E-22
    -27.241 -0.9351E-20 -0.3868E-21
    -27.202 -0.1424E-18 -0.5919E-20
    -27.163 -0.2009E-17 -0.8398E-19
    -27.125 -0.2626E-16 -0.1105E-17
    -27.086 -0.3181E-15 -0.1347E-16
    -27.047 -0.3571E-14 -0.1522E-15
    -27.008 -0.3710E-13 -0.1594E-14
    -26.969 -0.3458E-12 -0.1503E-13
    -26.930 -0.3090E-11 -0.1351E-12
    -26.891 -0.2547E-10 -0.1125E-11
    -26.852 -0.1943E-09 -0.8674E-11
    -26.814 -0.1371E-08 -0.6197E-10
    -26.775 -0.8956E-08 -0.4100E-09
    -26.736 -0.5410E-07 -0.2512E-08
    -26.697 -0.3021E-06 -0.1425E-07
    -26.658 -0.1559E-05 -0.7486E-07
    -26.619 -0.7435E-05 -0.3638E-06
    -26.580 -0.3272E-04 -0.1636E-05
    -26.542 -0.1329E-03 -0.6800E-05
    -26.503 -0.4974E-03 -0.2613E-04
    -26.464 -0.1715E-02 -0.9276E-04
    -26.425 -0.5434E-02 -0.3040E-03
    -26.386 -0.1581E-01 -0.9185E-03
    -26.347 -0.4215E-01 -0.2557E-02
    -26.308 -0.1026E+00 -0.6544E-02
    -26.270 -0.2270E+00 -0.1537E-01
    -26.231 -0.4539E+00 -0.3301E-01
    -26.192 -0.8112E+00 -0.6453E-01
    -26.153 -0.1273E+01 -0.1140E+00
    -26.114 -0.1689E+01 -0.1796E+00
    -26.075 -0.1719E+01 -0.2465E+00
    -26.036 -0.8188E+00 -0.2783E+00
    -25.997  0.1647E+01 -0.2143E+00
    -25.959  0.6134E+01  0.2410E-01
    -25.920  0.1258E+02  0.5128E+00
    -25.881  0.2013E+02  0.1295E+01
    -25.842  0.2725E+02  0.2354E+01
    -25.803  0.3212E+02  0.3603E+01
    -25.764  0.3336E+02  0.4899E+01
    -25.725  0.3060E+02  0.6088E+01
    -25.687  0.2464E+02  0.7046E+01
    -25.648  0.1714E+02  0.7712E+01
    -25.609  0.9862E+01  0.8095E+01
    -25.570  0.4127E+01  0.8256E+01
    -25.531  0.4572E+00  0.8274E+01
    -25.492 -0.1325E+01  0.8222E+01
    -25.453 -0.1787E+01  0.8153E+01
    -25.415 -0.1550E+01  0.8092E+01
    -25.376 -0.1086E+01  0.8050E+01
    -25.337 -0.6557E+00  0.8025E+01
    -25.298 -0.3504E+00  0.8011E+01
    -25.259 -0.1682E+00  0.8005E+01
    -25.220 -0.7314E-01  0.8002E+01
    -25.181 -0.2897E-01  0.8001E+01
    -25.143 -0.1049E-01  0.8000E+01
    -25.104 -0.3481E-02  0.8000E+01
    -25.065 -0.1061E-02  0.8000E+01
    -25.026 -0.2978E-03  0.8000E+01
    -24.987 -0.7693E-04  0.8000E+01
    -24.948 -0.1833E-04  0.8000E+01
    -24.909 -0.4028E-05  0.8000E+01
    -24.870 -0.8174E-06  0.8000E+01
    -24.832 -0.1532E-06  0.8000E+01
    -24.793 -0.2655E-07  0.8000E+01
    -24.754 -0.4252E-08  0.8000E+01
    -24.715 -0.6298E-09  0.8000E+01
    -24.676 -0.8631E-10  0.8000E+01
    -24.637 -0.1094E-10  0.8000E+01
    -24.598 -0.1283E-11  0.8000E+01
    -24.560 -0.1461E-12  0.8000E+01
    -24.521 -0.1143E-13  0.8000E+01
    -24.482  0.0000E+00  0.8000E+01
    -24.443  0.0000E+00  0.8000E+01
    -24.404  0.0000E+00  0.8000E+01
    -24.365  0.0000E+00  0.8000E+01
    -24.326  0.0000E+00  0.8000E+01
    -24.288  0.0000E+00  0.8000E+01
    -24.249  0.0000E+00  0.8000E+01
    -24.210  0.0000E+00  0.8000E+01
    -24.171  0.0000E+00  0.8000E+01
    -24.132  0.0000E+00  0.8000E+01
    -24.093  0.0000E+00  0.8000E+01
    -24.054  0.0000E+00  0.8000E+01
    -24.015  0.0000E+00  0.8000E+01
    -23.977  0.0000E+00  0.8000E+01
    -23.938  0.0000E+00  0.8000E+01
    -23.899  0.0000E+00  0.8000E+01
    -23.860  0.0000E+00  0.8000E+01
    -23.821  0.0000E+00  0.8000E+01
    -23.782  0.0000E+00  0.8000E+01
    -23.743  0.0000E+00  0.8000E+01
    -23.705  0.0000E+00  0.8000E+01
    -23.666  0.0000E+00  0.8000E+01
    -23.627  0.0000E+00  0.8000E+01
    -23.588  0.0000E+00  0.8000E+01
    -23.549  0.0000E+00  0.8000E+01
    -23.510  0.0000E+00  0.8000E+01
    -23.471  0.0000E+00  0.8000E+01
    -23.433  0.0000E+00  0.8000E+01
    -23.394  0.0000E+00  0.8000E+01
    -23.355  0.0000E+00  0.8000E+01
    -23.316  0.0000E+00  0.8000E+01
    -23.277  0.0000E+00  0.8000E+01
    -23.238  0.0000E+00  0.8000E+01
    -23.199  0.0000E+00  0.8000E+01
    -23.161  0.0000E+00  0.8000E+01
    -23.122  0.0000E+00  0.8000E+01
    -23.083  0.0000E+00  0.8000E+01
    -23.044  0.0000E+00  0.8000E+01
    -23.005  0.0000E+00  0.8000E+01
    -22.966  0.0000E+00  0.8000E+01
    -22.927  0.0000E+00  0.8000E+01
    -22.888  0.0000E+00  0.8000E+01
    -22.850  0.0000E+00  0.8000E+01
    -22.811  0.0000E+00  0.8000E+01
    -22.772  0.0000E+00  0.8000E+01
    -22.733  0.0000E+00  0.8000E+01
    -22.694  0.0000E+00  0.8000E+01
    -22.655  0.0000E+00  0.8000E+01
    -22.616  0.0000E+00  0.8000E+01
    -22.578  0.0000E+00  0.8000E+01
    -22.539  0.0000E+00  0.8000E+01
    -22.500  0.0000E+00  0.8000E+01
    -22.461  0.0000E+00  0.8000E+01
    -22.422  0.0000E+00  0.8000E+01
    -22.383  0.0000E+00  0.8000E+01
    -22.344  0.0000E+00  0.8000E+01
    -22.306  0.0000E+00  0.8000E+01
    -22.267  0.0000E+00  0.8000E+01
    -22.228  0.0000E+00  0.8000E+01
    -22.189  0.0000E+00  0.8000E+01
    -22.150  0.0000E+00  0.8000E+01
    -22.111  0.0000E+00  0.8000E+01
    -22.072  0.0000E+00  0.8000E+01
    -22.033  0.0000E+00  0.8000E+01
    -21.995  0.0000E+00  0.8000E+01
    -21.956  0.0000E+00  0.8000E+01
    -21.917  0.0000E+00  0.8000E+01
    -21.878  0.0000E+00  0.8000E+01
    -21.839  0.0000E+00  0.8000E+01
    -21.800  0.0000E+00  0.8000E+01
    -21.761  0.0000E+00  0.8000E+01
    -21.723  0.0000E+00  0.8000E+01
    -21.684  0.0000E+00  0.8000E+01
    -21.645  0.0000E+00  0.8000E+01
    -21.606  0.0000E+00  0.8000E+01
    -21.567  0.0000E+00  0.8000E+01
    -21.528  0.0000E+00  0.8000E+01
    -21.489  0.0000E+00  0.8000E+01
    -21.451  0.0000E+00  0.8000E+01
    -21.412  0.0000E+00  0.8000E+01
    -21.373  0.0000E+00  0.8000E+01
    -21.334  0.0000E+00  0.8000E+01
    -21.295  0.0000E+00  0.8000E+01
    -21.256  0.0000E+00  0.8000E+01
    -21.217  0.0000E+00  0.8000E+01
    -21.179  0.0000E+00  0.8000E+01
    -21.140  0.0000E+00  0.8000E+01
    -21.101  0.0000E+00  0.8000E+01
    -21.062  0.0000E+00  0.8000E+01
    -21.023  0.0000E+00  0.8000E+01
    -20.984  0.0000E+00  0.8000E+01
    -20.945  0.0000E+00  0.8000E+01
    -20.906  0.0000E+00  0.8000E+01
    -20.868  0.0000E+00  0.8000E+01
    -20.829  0.0000E+00  0.8000E+01
    -20.790  0.0000E+00  0.8000E+01
    -20.751  0.0000E+00  0.8000E+01
    -20.712  0.0000E+00  0.8000E+01
    -20.673  0.0000E+00  0.8000E+01
    -20.634  0.0000E+00  0.8000E+01
    -20.596  0.0000E+00  0.8000E+01
    -20.557  0.0000E+00  0.8000E+01
    -20.518  0.0000E+00  0.8000E+01
    -20.479  0.0000E+00  0.8000E+01
    -20.440  0.0000E+00  0.8000E+01
    -20.401  0.0000E+00  0.8000E+01
    -20.362  0.0000E+00  0.8000E+01
    -20.324  0.0000E+00  0.8000E+01
    -20.285  0.0000E+00  0.8000E+01
    -20.246  0.0000E+00  0.8000E+01
    -20.207  0.0000E+00  0.8000E+01
    -20.168  0.0000E+00  0.8000E+01
    -20.129  0.0000E+00  0.8000E+01
    -20.090  0.0000E+00  0.8000E+01
    -20.052  0.0000E+00  0.8000E+01
    -20.013  0.0000E+00  0.8000E+01
    -19.974  0.0000E+00  0.8000E+01
    -19.935  0.0000E+00  0.8000E+01
    -19.896  0.0000E+00  0.8000E+01
    -19.857  0.0000E+00  0.8000E+01
    -19.818  0.0000E+00  0.8000E+01
    -19.779  0.0000E+00  0.8000E+01
    -19.741  0.0000E+00  0.8000E+01
    -19.702  0.0000E+00  0.8000E+01
    -19.663  0.0000E+00  0.8000E+01
    -19.624  0.0000E+00  0.8000E+01
    -19.585  0.0000E+00  0.8000E+01
    -19.546  0.0000E+00  0.8000E+01
    -19.507  0.0000E+00  0.8000E+01
    -19.469  0.0000E+00  0.8000E+01
    -19.430  0.0000E+00  0.8000E+01
    -19.391  0.0000E+00  0.8000E+01
    -19.352  0.0000E+00  0.8000E+01
    -19.313  0.0000E+00  0.8000E+01
    -19.274  0.0000E+00  0.8000E+01
    -19.235  0.0000E+00  0.8000E+01
    -19.197  0.0000E+00  0.8000E+01
    -19.158  0.0000E+00  0.8000E+01
    -19.119  0.0000E+00  0.8000E+01
    -19.080  0.0000E+00  0.8000E+01
    -19.041  0.0000E+00  0.8000E+01
    -19.002  0.0000E+00  0.8000E+01
    -18.963  0.0000E+00  0.8000E+01
    -18.924  0.0000E+00  0.8000E+01
    -18.886  0.0000E+00  0.8000E+01
    -18.847  0.0000E+00  0.8000E+01
    -18.808  0.0000E+00  0.8000E+01
    -18.769  0.0000E+00  0.8000E+01
    -18.730  0.0000E+00  0.8000E+01
    -18.691  0.0000E+00  0.8000E+01
    -18.652  0.0000E+00  0.8000E+01
    -18.614  0.0000E+00  0.8000E+01
    -18.575  0.0000E+00  0.8000E+01
    -18.536  0.0000E+00  0.8000E+01
    -18.497  0.0000E+00  0.8000E+01
    -18.458  0.0000E+00  0.8000E+01
    -18.419  0.0000E+00  0.8000E+01
    -18.380  0.0000E+00  0.8000E+01
    -18.342  0.0000E+00  0.8000E+01
    -18.303  0.0000E+00  0.8000E+01
    -18.264  0.0000E+00  0.8000E+01
    -18.225  0.0000E+00  0.8000E+01
    -18.186  0.0000E+00  0.8000E+01
    -18.147  0.0000E+00  0.8000E+01
    -18.108  0.0000E+00  0.8000E+01
    -18.070  0.0000E+00  0.8000E+01
    -18.031  0.0000E+00  0.8000E+01
    -17.992  0.0000E+00  0.8000E+01
    -17.953  0.0000E+00  0.8000E+01
    -17.914  0.0000E+00  0.8000E+01
    -17.875  0.0000E+00  0.8000E+01
    -17.836  0.0000E+00  0.8000E+01
    -17.797  0.0000E+00  0.8000E+01
    -17.759  0.0000E+00  0.8000E+01
    -17.720  0.0000E+00  0.8000E+01
    -17.681  0.0000E+00  0.8000E+01
    -17.642  0.0000E+00  0.8000E+01
    -17.603  0.0000E+00  0.8000E+01
    -17.564  0.0000E+00  0.8000E+01
    -17.525  0.0000E+00  0.8000E+01
    -17.487  0.0000E+00  0.8000E+01
    -17.448  0.0000E+00  0.8000E+01
    -17.409  0.0000E+00  0.8000E+01
    -17.370  0.0000E+00  0.8000E+01
    -17.331  0.0000E+00  0.8000E+01
    -17.292  0.0000E+00  0.8000E+01
    -17.253  0.0000E+00  0.8000E+01
    -17.215  0.0000E+00  0.8000E+01
    -17.176  0.0000E+00  0.8000E+01
    -17.137  0.0000E+00  0.8000E+01
    -17.098  0.0000E+00  0.8000E+01
    -17.059  0.0000E+00  0.8000E+01
    -17.020  0.0000E+00  0.8000E+01
    -16.981  0.0000E+00  0.8000E+01
    -16.942  0.0000E+00  0.8000E+01
    -16.904  0.0000E+00  0.8000E+01
    -16.865  0.0000E+00  0.8000E+01
    -16.826  0.0000E+00  0.8000E+01
    -16.787  0.0000E+00  0.8000E+01
    -16.748  0.0000E+00  0.8000E+01
    -16.709  0.0000E+00  0.8000E+01
    -16.670  0.0000E+00  0.8000E+01
    -16.632  0.0000E+00  0.8000E+01
    -16.593  0.0000E+00  0.8000E+01
    -16.554  0.0000E+00  0.8000E+01
    -16.515  0.0000E+00  0.8000E+01
    -16.476  0.0000E+00  0.8000E+01
    -16.437  0.0000E+00  0.8000E+01
    -16.398  0.0000E+00  0.8000E+01
    -16.360  0.0000E+00  0.8000E+01
    -16.321  0.0000E+00  0.8000E+01
    -16.282  0.0000E+00  0.8000E+01
    -16.243  0.0000E+00  0.8000E+01
    -16.204  0.0000E+00  0.8000E+01
    -16.165  0.0000E+00  0.8000E+01
    -16.126  0.0000E+00  0.8000E+01
    -16.088  0.0000E+00  0.8000E+01
    -16.049  0.0000E+00  0.8000E+01
    -16.010  0.0000E+00  0.8000E+01
    -15.971  0.0000E+00  0.8000E+01
    -15.932  0.0000E+00  0.8000E+01
    -15.893  0.0000E+00  0.8000E+01
    -15.854  0.0000E+00  0.8000E+01
    -15.815  0.0000E+00  0.8000E+01
    -15.777  0.0000E+00  0.8000E+01
    -15.738  0.0000E+00  0.8000E+01
    -15.699  0.0000E+00  0.8000E+01
    -15.660  0.0000E+00  0.8000E+01
    -15.621  0.0000E+00  0.8000E+01
    -15.582  0.0000E+00  0.8000E+01
    -15.543  0.0000E+00  0.8000E+01
    -15.505  0.0000E+00  0.8000E+01
    -15.466  0.0000E+00  0.8000E+01
    -15.427  0.0000E+00  0.8000E+01
    -15.388  0.0000E+00  0.8000E+01
    -15.349  0.0000E+00  0.8000E+01
    -15.310  0.0000E+00  0.8000E+01
    -15.271  0.0000E+00  0.8000E+01
    -15.233  0.0000E+00  0.8000E+01
    -15.194  0.0000E+00  0.8000E+01
    -15.155  0.0000E+00  0.8000E+01
    -15.116  0.0000E+00  0.8000E+01
    -15.077  0.0000E+00  0.8000E+01
    -15.038  0.0000E+00  0.8000E+01
    -14.999  0.0000E+00  0.8000E+01
    -14.960  0.0000E+00  0.8000E+01
    -14.922  0.0000E+00  0.8000E+01
    -14.883  0.0000E+00  0.8000E+01
    -14.844  0.0000E+00  0.8000E+01
    -14.805  0.0000E+00  0.8000E+01
    -14.766  0.0000E+00  0.8000E+01
    -14.727  0.0000E+00  0.8000E+01
    -14.688  0.0000E+00  0.8000E+01
    -14.650  0.0000E+00  0.8000E+01
    -14.611  0.0000E+00  0.8000E+01
    -14.572  0.0000E+00  0.8000E+01
    -14.533  0.0000E+00  0.8000E+01
    -14.494  0.0000E+00  0.8000E+01
    -14.455  0.0000E+00  0.8000E+01
    -14.416  0.0000E+00  0.8000E+01
    -14.378  0.0000E+00  0.8000E+01
    -14.339  0.0000E+00  0.8000E+01
    -14.300  0.0000E+00  0.8000E+01
    -14.261  0.0000E+00  0.8000E+01
    -14.222  0.0000E+00  0.8000E+01
    -14.183  0.0000E+00  0.8000E+01
    -14.144  0.0000E+00  0.8000E+01
    -14.106  0.0000E+00  0.8000E+01
    -14.067  0.0000E+00  0.8000E+01
    -14.028  0.0000E+00  0.8000E+01
    -13.989  0.0000E+00  0.8000E+01
    -13.950  0.0000E+00  0.8000E+01
    -13.911  0.0000E+00  0.8000E+01
    -13.872  0.0000E+00  0.8000E+01
    -13.833  0.0000E+00  0.8000E+01
    -13.795  0.0000E+00  0.8000E+01
    -13.756  0.0000E+00  0.8000E+01
    -13.717  0.0000E+00  0.8000E+01
    -13.678  0.0000E+00  0.8000E+01
    -13.639  0.0000E+00  0.8000E+01
    -13.600  0.0000E+00  0.8000E+01
    -13.561  0.0000E+00  0.8000E+01
    -13.523  0.0000E+00  0.8000E+01
    -13.484  0.0000E+00  0.8000E+01
    -13.445  0.0000E+00  0.8000E+01
    -13.406  0.0000E+00  0.8000E+01
    -13.367  0.0000E+00  0.8000E+01
    -13.328  0.0000E+00  0.8000E+01
    -13.289  0.0000E+00  0.8000E+01
    -13.251  0.0000E+00  0.8000E+01
    -13.212  0.0000E+00  0.8000E+01
    -13.173  0.0000E+00  0.8000E+01
    -13.134  0.0000E+00  0.8000E+01
    -13.095  0.0000E+00  0.8000E+01
    -13.056  0.0000E+00  0.8000E+01
    -13.017  0.0000E+00  0.8000E+01
    -12.978  0.0000E+00  0.8000E+01
    -12.940  0.0000E+00  0.8000E+01
    -12.901  0.0000E+00  0.8000E+01
    -12.862  0.0000E+00  0.8000E+01
    -12.823  0.0000E+00  0.8000E+01
    -12.784  0.0000E+00  0.8000E+01
    -12.745  0.0000E+00  0.8000E+01
    -12.706  0.0000E+00  0.8000E+01
    -12.668  0.0000E+00  0.8000E+01
    -12.629  0.0000E+00  0.8000E+01
    -12.590  0.0000E+00  0.8000E+01
    -12.551  0.0000E+00  0.8000E+01
    -12.512  0.0000E+00  0.8000E+01
    -12.473  0.0000E+00  0.8000E+01
    -12.434  0.0000E+00  0.8000E+01
    -12.396  0.0000E+00  0.8000E+01
    -12.357  0.0000E+00  0.8000E+01
    -12.318  0.0000E+00  0.8000E+01
    -12.279  0.0000E+00  0.8000E+01
    -12.240  0.0000E+00  0.8000E+01
    -12.201  0.0000E+00  0.8000E+01
    -12.162  0.0000E+00  0.8000E+01
    -12.124  0.0000E+00  0.8000E+01
    -12.085  0.0000E+00  0.8000E+01
    -12.046  0.0000E+00  0.8000E+01
    -12.007  0.0000E+00  0.8000E+01
    -11.968  0.0000E+00  0.8000E+01
    -11.929  0.0000E+00  0.8000E+01
    -11.890  0.0000E+00  0.8000E+01
    -11.851  0.0000E+00  0.8000E+01
    -11.813  0.0000E+00  0.8000E+01
    -11.774  0.0000E+00  0.8000E+01
    -11.735  0.0000E+00  0.8000E+01
    -11.696  0.0000E+00  0.8000E+01
    -11.657  0.0000E+00  0.8000E+01
    -11.618  0.0000E+00  0.8000E+01
    -11.579  0.0000E+00  0.8000E+01
    -11.541  0.0000E+00  0.8000E+01
    -11.502  0.0000E+00  0.8000E+01
    -11.463  0.0000E+00  0.8000E+01
    -11.424  0.0000E+00  0.8000E+01
    -11.385  0.0000E+00  0.8000E+01
    -11.346  0.0000E+00  0.8000E+01
    -11.307  0.0000E+00  0.8000E+01
    -11.269  0.0000E+00  0.8000E+01
    -11.230  0.0000E+00  0.8000E+01
    -11.191  0.0000E+00  0.8000E+01
    -11.152  0.0000E+00  0.8000E+01
    -11.113  0.0000E+00  0.8000E+01
    -11.074  0.0000E+00  0.8000E+01
    -11.035  0.0000E+00  0.8000E+01
    -10.996  0.0000E+00  0.8000E+01
    -10.958  0.0000E+00  0.8000E+01
    -10.919  0.0000E+00  0.8000E+01
    -10.880  0.0000E+00  0.8000E+01
    -10.841  0.0000E+00  0.8000E+01
    -10.802  0.0000E+00  0.8000E+01
    -10.763  0.0000E+00  0.8000E+01
    -10.724  0.0000E+00  0.8000E+01
    -10.686 -0.1188E-28  0.8000E+01
    -10.647 -0.8167E-27  0.8000E+01
    -10.608 -0.1796E-25  0.8000E+01
    -10.569 -0.3586E-24  0.8000E+01
    -10.530 -0.6614E-23  0.8000E+01
    -10.491 -0.1131E-21  0.8000E+01
    -10.452 -0.1795E-20  0.8000E+01
    -10.414 -0.2640E-19  0.8000E+01
    -10.375 -0.3603E-18  0.8000E+01
    -10.336 -0.4559E-17  0.8000E+01
    -10.297 -0.5352E-16  0.8000E+01
    -10.258 -0.5827E-15  0.8000E+01
    -10.219 -0.5750E-14  0.8000E+01
    -10.180 -0.5352E-13  0.8000E+01
    -10.142 -0.4637E-12  0.8000E+01
    -10.103 -0.3726E-11  0.8000E+01
    -10.064 -0.2778E-10  0.8000E+01
    -10.025 -0.1921E-09  0.8000E+01
     -9.986 -0.1232E-08  0.8000E+01
     -9.947 -0.7325E-08  0.8000E+01
     -9.908 -0.4040E-07  0.8000E+01
     -9.869 -0.2067E-06  0.8000E+01
     -9.831 -0.9807E-06  0.8000E+01
     -9.792 -0.4316E-05  0.8000E+01
     -9.753 -0.1762E-04  0.8000E+01
     -9.714 -0.6670E-04  0.8000E+01
     -9.675 -0.2342E-03  0.8000E+01
     -9.636 -0.7625E-03  0.8000E+01
     -9.597 -0.2302E-02  0.8000E+01
     -9.559 -0.6438E-02  0.8000E+01
     -9.520 -0.1667E-01  0.7999E+01
     -9.481 -0.3995E-01  0.7997E+01
     -9.442 -0.8838E-01  0.7994E+01
     -9.403 -0.1801E+00  0.7987E+01
     -9.364 -0.3364E+00  0.7974E+01
     -9.325 -0.5723E+00  0.7952E+01
     -9.287 -0.8755E+00  0.7918E+01
     -9.248 -0.1176E+01  0.7872E+01
     -9.209 -0.1310E+01  0.7821E+01
     -9.170 -0.1005E+01  0.7782E+01
     -9.131  0.1043E+00  0.7786E+01
     -9.092  0.2405E+01  0.7879E+01
     -9.053  0.6179E+01  0.8120E+01
     -9.015  0.1147E+02  0.8566E+01
     -8.976  0.1802E+02  0.9266E+01
     -8.937  0.2525E+02  0.1025E+02
     -8.898  0.3241E+02  0.1151E+02
     -8.859  0.3876E+02  0.1301E+02
     -8.820  0.4372E+02  0.1471E+02
     -8.781  0.4696E+02  0.1654E+02
     -8.742  0.4841E+02  0.1842E+02
     -8.704  0.4819E+02  0.2029E+02
     -8.665  0.4658E+02  0.2210E+02
     -8.626  0.4397E+02  0.2381E+02
     -8.587  0.4072E+02  0.2539E+02
     -8.548  0.3710E+02  0.2684E+02
     -8.509  0.3322E+02  0.2813E+02
     -8.470  0.2901E+02  0.2925E+02
     -8.432  0.2440E+02  0.3020E+02
     -8.393  0.1940E+02  0.3096E+02
     -8.354  0.1427E+02  0.3151E+02
     -8.315  0.9426E+01  0.3188E+02
     -8.276  0.5304E+01  0.3208E+02
     -8.237  0.2217E+01  0.3217E+02
     -8.198  0.2421E+00  0.3218E+02
     -8.160 -0.7631E+00  0.3215E+02
     -8.121 -0.1074E+01  0.3211E+02
     -8.082 -0.9862E+00  0.3207E+02
     -8.043 -0.7398E+00  0.3204E+02
     -8.004 -0.4825E+00  0.3202E+02
     -7.965 -0.2809E+00  0.3201E+02
     -7.926 -0.1480E+00  0.3200E+02
     -7.887 -0.7118E-01  0.3200E+02
     -7.849 -0.3138E-01  0.3200E+02
     -7.810 -0.1273E-01  0.3200E+02
     -7.771 -0.4757E-02  0.3200E+02
     -7.732 -0.1642E-02  0.3200E+02
     -7.693 -0.5239E-03  0.3200E+02
     -7.654 -0.1546E-03  0.3200E+02
     -7.615 -0.4225E-04  0.3200E+02
     -7.577 -0.1069E-04  0.3200E+02
     -7.538 -0.2505E-05  0.3200E+02
     -7.499 -0.5437E-06  0.3200E+02
     -7.460 -0.1094E-06  0.3200E+02
     -7.421 -0.2039E-07  0.3200E+02
     -7.382 -0.3523E-08  0.3200E+02
     -7.343 -0.5643E-09  0.3200E+02
     -7.305 -0.8377E-10  0.3200E+02
     -7.266 -0.1153E-10  0.3200E+02
     -7.227 -0.1470E-11  0.3200E+02
     -7.188 -0.1737E-12  0.3200E+02
     -7.149 -0.1812E-13  0.3200E+02
     -7.110 -0.1964E-14  0.3200E+02
     -7.071  0.0000E+00  0.3200E+02
     -7.033  0.0000E+00  0.3200E+02
     -6.994  0.0000E+00  0.3200E+02
     -6.955  0.0000E+00  0.3200E+02
     -6.916  0.0000E+00  0.3200E+02
     -6.877  0.0000E+00  0.3200E+02
     -6.838  0.0000E+00  0.3200E+02
     -6.799  0.0000E+00  0.3200E+02
     -6.760  0.0000E+00  0.3200E+02
     -6.722  0.0000E+00  0.3200E+02
     -6.683  0.0000E+00  0.3200E+02
     -6.644  0.0000E+00  0.3200E+02
     -6.605  0.0000E+00  0.3200E+02
     -6.566  0.0000E+00  0.3200E+02
     -6.527  0.0000E+00  0.3200E+02
     -6.488  0.0000E+00  0.3200E+02
     -6.450  0.0000E+00  0.3200E+02
     -6.411  0.0000E+00  0.3200E+02
     -6.372  0.0000E+00  0.3200E+02
     -6.333  0.0000E+00  0.3200E+02
     -6.294  0.0000E+00  0.3200E+02
     -6.255  0.0000E+00  0.3200E+02
     -6.216  0.0000E+00  0.3200E+02
     -6.178  0.0000E+00  0.3200E+02
     -6.139  0.0000E+00  0.3200E+02
     -6.100  0.0000E+00  0.3200E+02
     -6.061  0.0000E+00  0.3200E+02
     -6.022  0.0000E+00  0.3200E+02
     -5.983  0.0000E+00  0.3200E+02
     -5.944  0.0000E+00  0.3200E+02
     -5.905  0.0000E+00  0.3200E+02
     -5.867  0.0000E+00  0.3200E+02
     -5.828  0.0000E+00  0.3200E+02
     -5.789  0.0000E+00  0.3200E+02
     -5.750  0.0000E+00  0.3200E+02
     -5.711  0.0000E+00  0.3200E+02
     -5.672  0.0000E+00  0.3200E+02
     -5.633  0.0000E+00  0.3200E+02
     -5.595  0.0000E+00  0.3200E+02
     -5.556  0.0000E+00  0.3200E+02
     -5.517  0.0000E+00  0.3200E+02
     -5.478  0.0000E+00  0.3200E+02
     -5.439  0.0000E+00  0.3200E+02
     -5.400  0.0000E+00  0.3200E+02
     -5.361  0.0000E+00  0.3200E+02
     -5.323  0.0000E+00  0.3200E+02
     -5.284  0.0000E+00  0.3200E+02
     -5.245  0.0000E+00  0.3200E+02
     -5.206  0.0000E+00  0.3200E+02
     -5.167  0.0000E+00  0.3200E+02
     -5.128  0.0000E+00  0.3200E+02
     -5.089  0.0000E+00  0.3200E+02
     -5.051  0.0000E+00  0.3200E+02
     -5.012  0.0000E+00  0.3200E+02
     -4.973  0.0000E+00  0.3200E+02
     -4.934  0.0000E+00  0.3200E+02
     -4.895  0.0000E+00  0.3200E+02
     -4.856  0.0000E+00  0.3200E+02
     -4.817  0.0000E+00  0.3200E+02
     -4.778  0.0000E+00  0.3200E+02
     -4.740  0.0000E+00  0.3200E+02
     -4.701  0.0000E+00  0.3200E+02
     -4.662  0.0000E+00  0.3200E+02
     -4.623  0.0000E+00  0.3200E+02
     -4.584  0.0000E+00  0.3200E+02
     -4.545  0.0000E+00  0.3200E+02
     -4.506  0.0000E+00  0.3200E+02
     -4.468  0.0000E+00  0.3200E+02
     -4.429  0.0000E+00  0.3200E+02
     -4.390  0.0000E+00  0.3200E+02
     -4.351  0.0000E+00  0.3200E+02
     -4.312  0.0000E+00  0.3200E+02
     -4.273  0.0000E+00  0.3200E+02
     -4.234  0.0000E+00  0.3200E+02
     -4.196  0.0000E+00  0.3200E+02
     -4.157  0.0000E+00  0.3200E+02
     -4.118  0.0000E+00  0.3200E+02
     -4.079  0.0000E+00  0.3200E+02
     -4.040  0.0000E+00  0.3200E+02
     -4.001  0.0000E+00  0.3200E+02
     -3.962 -0.2933E-28  0.3200E+02
     -3.923 -0.6127E-27  0.3200E+02
     -3.885 -0.1238E-25  0.3200E+02
     -3.846 -0.2317E-24  0.3200E+02
     -3.807 -0.4018E-23  0.3200E+02
     -3.768 -0.6454E-22  0.3200E+02
     -3.729 -0.9602E-21  0.3200E+02
     -3.690 -0.1323E-19  0.3200E+02
     -3.651 -0.1688E-18  0.3200E+02
     -3.613 -0.1994E-17  0.3200E+02
     -3.574 -0.2181E-16  0.3200E+02
     -3.535 -0.2208E-15  0.3200E+02
     -3.496 -0.2003E-14  0.3200E+02
     -3.457 -0.1737E-13  0.3200E+02
     -3.418 -0.1392E-12  0.3200E+02
     -3.379 -0.1031E-11  0.3200E+02
     -3.341 -0.7060E-11  0.3200E+02
     -3.302 -0.4470E-10  0.3200E+02
     -3.263 -0.2616E-09  0.3200E+02
     -3.224 -0.1414E-08  0.3200E+02
     -3.185 -0.7063E-08  0.3200E+02
     -3.146 -0.3256E-07  0.3200E+02
     -3.107 -0.1385E-06  0.3200E+02
     -3.069 -0.5433E-06  0.3200E+02
     -3.030 -0.1964E-05  0.3200E+02
     -2.991 -0.6540E-05  0.3200E+02
     -2.952 -0.2004E-04  0.3200E+02
     -2.913 -0.5646E-04  0.3200E+02
     -2.874 -0.1461E-03  0.3200E+02
     -2.835 -0.3470E-03  0.3200E+02
     -2.796 -0.7552E-03  0.3200E+02
     -2.758 -0.1504E-02  0.3200E+02
     -2.719 -0.2737E-02  0.3200E+02
     -2.680 -0.4540E-02  0.3200E+02
     -2.641 -0.6837E-02  0.3200E+02
     -2.602 -0.9279E-02  0.3200E+02
     -2.563 -0.1114E-01  0.3200E+02
     -2.524 -0.1123E-01  0.3200E+02
     -2.486 -0.7780E-02  0.3200E+02
     -2.447  0.1749E-02  0.3200E+02
     -2.408  0.2087E-01  0.3200E+02
     -2.369  0.5398E-01  0.3200E+02
     -2.330  0.1058E+00  0.3200E+02
     -2.291  0.1800E+00  0.3201E+02
     -2.252  0.2785E+00  0.3202E+02
     -2.214  0.3999E+00  0.3204E+02
     -2.175  0.5394E+00  0.3206E+02
     -2.136  0.6886E+00  0.3209E+02
     -2.097  0.8357E+00  0.3212E+02
     -2.058  0.9664E+00  0.3216E+02
     -2.019  0.1066E+01  0.3220E+02
     -1.980  0.1123E+01  0.3224E+02
     -1.941  0.1133E+01  0.3229E+02
     -1.903  0.1102E+01  0.3233E+02
     -1.864  0.1048E+01  0.3237E+02
     -1.825  0.9927E+00  0.3241E+02
     -1.786  0.9650E+00  0.3244E+02
     -1.747  0.9905E+00  0.3248E+02
     -1.708  0.1086E+01  0.3253E+02
     -1.669  0.1256E+01  0.3257E+02
     -1.631  0.1485E+01  0.3263E+02
     -1.592  0.1744E+01  0.3270E+02
     -1.553  0.1992E+01  0.3278E+02
     -1.514  0.2185E+01  0.3286E+02
     -1.475  0.2285E+01  0.3295E+02
     -1.436  0.2274E+01  0.3304E+02
     -1.397  0.2150E+01  0.3312E+02
     -1.359  0.1941E+01  0.3320E+02
     -1.320  0.1695E+01  0.3326E+02
     -1.281  0.1472E+01  0.3332E+02
     -1.242  0.1340E+01  0.3337E+02
     -1.203  0.1362E+01  0.3343E+02
     -1.164  0.1587E+01  0.3349E+02
     -1.125  0.2037E+01  0.3357E+02
     -1.087  0.2699E+01  0.3367E+02
     -1.048  0.3523E+01  0.3381E+02
     -1.009  0.4423E+01  0.3398E+02
     -0.970  0.5292E+01  0.3419E+02
     -0.931  0.6021E+01  0.3442E+02
     -0.892  0.6521E+01  0.3467E+02
     -0.853  0.6749E+01  0.3494E+02
     -0.814  0.6714E+01  0.3520E+02
     -0.776  0.6475E+01  0.3545E+02
     -0.737  0.6121E+01  0.3569E+02
     -0.698  0.5736E+01  0.3591E+02
     -0.659  0.5377E+01  0.3612E+02
     -0.620  0.5059E+01  0.3632E+02
     -0.581  0.4755E+01  0.3650E+02
     -0.542  0.4414E+01  0.3667E+02
     -0.504  0.3992E+01  0.3683E+02
     -0.465  0.3472E+01  0.3696E+02
     -0.426  0.2897E+01  0.3707E+02
     -0.387  0.2369E+01  0.3717E+02
     -0.348  0.2031E+01  0.3725E+02
     -0.309  0.2023E+01  0.3732E+02
     -0.270  0.2423E+01  0.3742E+02
     -0.232  0.3200E+01  0.3754E+02
     -0.193  0.4205E+01  0.3771E+02
     -0.154  0.5210E+01  0.3791E+02
     -0.115  0.5969E+01  0.3814E+02
     -0.076  0.6300E+01  0.3838E+02
     -0.037  0.6135E+01  0.3862E+02
      0.002  0.5535E+01  0.3884E+02
      0.041  0.4668E+01  0.3902E+02
      0.079  0.3746E+01  0.3917E+02
      0.118  0.2969E+01  0.3928E+02
      0.157  0.2459E+01  0.3938E+02
      0.196  0.2237E+01  0.3946E+02
      0.235  0.2234E+01  0.3955E+02
      0.274  0.2342E+01  0.3964E+02
      0.313  0.2465E+01  0.3974E+02
      0.351  0.2565E+01  0.3984E+02
      0.390  0.2664E+01  0.3994E+02
      0.429  0.2817E+01  0.4005E+02
      0.468  0.3067E+01  0.4017E+02
      0.507  0.3407E+01  0.4030E+02
      0.546  0.3772E+01  0.4045E+02
      0.585  0.4059E+01  0.4061E+02
      0.623  0.4181E+01  0.4077E+02
      0.662  0.4120E+01  0.4093E+02
      0.701  0.3942E+01  0.4108E+02
      0.740  0.3779E+01  0.4123E+02
      0.779  0.3764E+01  0.4137E+02
      0.818  0.3962E+01  0.4153E+02
      0.857  0.4337E+01  0.4170E+02
      0.895  0.4757E+01  0.4188E+02
      0.934  0.5052E+01  0.4208E+02
      0.973  0.5076E+01  0.4228E+02
      1.012  0.4762E+01  0.4246E+02
      1.051  0.4144E+01  0.4262E+02
      1.090  0.3348E+01  0.4275E+02
      1.129  0.2556E+01  0.4285E+02
      1.168  0.1950E+01  0.4293E+02
      1.206  0.1649E+01  0.4299E+02
      1.245  0.1676E+01  0.4306E+02
      1.284  0.1956E+01  0.4313E+02
      1.323  0.2347E+01  0.4322E+02
      1.362  0.2703E+01  0.4333E+02
      1.401  0.2922E+01  0.4344E+02
      1.440  0.2966E+01  0.4356E+02
      1.478  0.2856E+01  0.4367E+02
      1.517  0.2651E+01  0.4377E+02
      1.556  0.2427E+01  0.4387E+02
      1.595  0.2259E+01  0.4395E+02
      1.634  0.2215E+01  0.4404E+02
      1.673  0.2327E+01  0.4413E+02
      1.712  0.2578E+01  0.4423E+02
      1.750  0.2886E+01  0.4434E+02
      1.789  0.3122E+01  0.4446E+02
      1.828  0.3150E+01  0.4459E+02
      1.867  0.2896E+01  0.4470E+02
      1.906  0.2391E+01  0.4479E+02
      1.945  0.1773E+01  0.4486E+02
      1.984  0.1253E+01  0.4491E+02
      2.022  0.1032E+01  0.4495E+02
      2.061  0.1235E+01  0.4500E+02
      2.100  0.1857E+01  0.4507E+02
      2.139  0.2757E+01  0.4518E+02
      2.178  0.3700E+01  0.4532E+02
      2.217  0.4434E+01  0.4549E+02
      2.256  0.4770E+01  0.4568E+02
      2.295  0.4653E+01  0.4586E+02
      2.333  0.4165E+01  0.4602E+02
      2.372  0.3490E+01  0.4616E+02
      2.411  0.2832E+01  0.4627E+02
      2.450  0.2346E+01  0.4636E+02
      2.489  0.2096E+01  0.4644E+02
      2.528  0.2059E+01  0.4652E+02
      2.567  0.2161E+01  0.4660E+02
      2.605  0.2314E+01  0.4669E+02
      2.644  0.2448E+01  0.4679E+02
      2.683  0.2518E+01  0.4689E+02
      2.722  0.2508E+01  0.4698E+02
      2.761  0.2424E+01  0.4708E+02
      2.800  0.2296E+01  0.4717E+02
      2.839  0.2169E+01  0.4725E+02
      2.877  0.2092E+01  0.4733E+02
      2.916  0.2094E+01  0.4741E+02
      2.955  0.2168E+01  0.4750E+02
      2.994  0.2278E+01  0.4759E+02
      3.033  0.2376E+01  0.4768E+02
      3.072  0.2430E+01  0.4777E+02
      3.111  0.2437E+01  0.4787E+02
      3.150  0.2419E+01  0.4796E+02
      3.188  0.2409E+01  0.4806E+02
      3.227  0.2426E+01  0.4815E+02
      3.266  0.2467E+01  0.4825E+02
      3.305  0.2515E+01  0.4834E+02
      3.344  0.2545E+01  0.4844E+02
      3.383  0.2542E+01  0.4854E+02
      3.422  0.2510E+01  0.4864E+02
      3.460  0.2469E+01  0.4873E+02
      3.499  0.2440E+01  0.4883E+02
      3.538  0.2435E+01  0.4892E+02
      3.577  0.2447E+01  0.4902E+02
      3.616  0.2456E+01  0.4911E+02
      3.655  0.2439E+01  0.4921E+02
      3.694  0.2391E+01  0.4930E+02
      3.732  0.2330E+01  0.4939E+02
      3.771  0.2297E+01  0.4948E+02
      3.810  0.2339E+01  0.4957E+02
      3.849  0.2493E+01  0.4967E+02
      3.888  0.2769E+01  0.4978E+02
      3.927  0.3148E+01  0.4990E+02
      3.966  0.3587E+01  0.5004E+02
      4.004  0.4028E+01  0.5020E+02
      4.043  0.4407E+01  0.5037E+02
      4.082  0.4671E+01  0.5055E+02
      4.121  0.4785E+01  0.5073E+02
      4.160  0.4752E+01  0.5092E+02
      4.199  0.4613E+01  0.5110E+02
      4.238  0.4443E+01  0.5127E+02