unknown system                          
   1.0000000000000000     
     4.035014    0.000000    0.000000
     0.000000   16.741910    0.000000
     0.000000    0.000000    4.006497
   Si   Fe   Ce
     8     4     4
Direct
  0.000000  0.040263  0.250000
  0.000000  0.959737  0.750000
  0.500000  0.540263  0.250000
  0.500000  0.459737  0.750000
  0.000000  0.749792  0.250000
  0.000000  0.250208  0.750000
  0.500000  0.249792  0.250000
  0.500000  0.750208  0.750000
  0.000000  0.175465  0.250000
  0.000000  0.824535  0.750000
  0.500000  0.675465  0.250000
  0.500000  0.324535  0.750000
  0.000000  0.389441  0.250000
  0.000000  0.610559  0.750000
  0.500000  0.889441  0.250000
  0.500000  0.110559  0.750000

   30  126   30
 0.81758     0.81437     0.80433     0.78658     0.76036     0.72546     0.68186     0.62856     0.56318     0.48426    
 0.39564     0.30764     0.23219     0.17708     0.14469     0.13415     0.14469     0.17708     0.23219     0.30764    
 0.39564     0.48426     0.56318     0.62856     0.68186     0.72546     0.76036     0.78658     0.80433     0.81437    
 0.81241     0.80916     0.79909     0.78137     0.75527     0.72042     0.67643     0.62197     0.55458     0.47325    
 0.38280     0.29456     0.22059     0.16774     0.13716     0.12728     0.13716     0.16774     0.22059     0.29456    
 0.38280     0.47325     0.55458     0.62197     0.67643     0.72042     0.75527     0.78137     0.79909     0.80916    
 0.79596     0.79271     0.78270     0.76530     0.73965     0.70480     0.65937     0.60123     0.52814     0.44087    
 0.34716     0.26036     0.19178     0.14538     0.11953     0.11133     0.11953     0.14538     0.19178     0.26036    
 0.34716     0.44087     0.52814     0.60123     0.65937     0.70480     0.73965     0.76530     0.78270     0.79271    
 0.76677     0.76370     0.75432     0.73794     0.71317     0.67787     0.62932     0.56478     0.48346     0.38992    
 0.29592     0.21564     0.15718     0.12027     0.10066     0.94588E-01 0.10066     0.12027     0.15718     0.21564    
 0.29592     0.38992     0.48346     0.56478     0.62932     0.67787     0.71317     0.73794     0.75432     0.76370    
 0.72605     0.72353     0.71563     0.70106     0.67722     0.64037     0.58649     0.51328     0.42329     0.32661    
 0.23851     0.17093     0.12644     0.10064     0.87798E-01 0.83960E-01 0.87798E-01 0.10064     0.12644     0.17093    
 0.23851     0.32661     0.42329     0.51328     0.58649     0.64037     0.67722     0.70106     0.71563     0.72353    
 0.68069     0.67894     0.67289     0.66003     0.63608     0.59565     0.53411     0.45107     0.35451     0.26077    
 0.18597     0.13623     0.10790     0.93977E-01 0.88331E-01 0.86924E-01 0.88331E-01 0.93977E-01 0.10790     0.13623    
 0.18597     0.26077     0.35451     0.45107     0.53411     0.59565     0.63608     0.66003     0.67289     0.67894    
 0.64227     0.64098     0.63575     0.62266     0.59579     0.54865     0.47709     0.38463     0.28659     0.20404    
 0.14887     0.11947     0.10843     0.10825     0.11202     0.11406     0.11202     0.10825     0.10843     0.11947    
 0.14887     0.20404     0.28659     0.38463     0.47709     0.54865     0.59579     0.62266     0.63575     0.64098    
 0.62113     0.61945     0.61257     0.59546     0.56121     0.50321     0.41965     0.32059     0.22909     0.16524    
 0.13251     0.12454     0.13423     0.15388     0.17294     0.18079     0.17294     0.15388     0.13423     0.12454    
 0.13251     0.16524     0.22909     0.32059     0.41965     0.50321     0.56121     0.59546     0.61257     0.61945    
 0.61936     0.61629     0.60492     0.57962     0.53332     0.46082     0.36526     0.26558     0.18860     0.14685    
 0.13712     0.15381     0.19174     0.23994     0.28011     0.29561     0.28011     0.23994     0.19174     0.15381    
 0.13712     0.14685     0.18860     0.26558     0.36526     0.46082     0.53332     0.57962     0.60492     0.61629    
 0.62851     0.62343     0.60583     0.56985     0.50914     0.42158     0.31783     0.22490     0.16663     0.14691    
 0.16146     0.20795     0.27964     0.35673     0.41389     0.43456     0.41389     0.35673     0.27964     0.20795    
 0.16146     0.14691     0.16663     0.22490     0.31783     0.42158     0.50914     0.56985     0.60583     0.62343    
 0.63504     0.62791     0.60407     0.55785     0.48435     0.38581     0.28085     0.20016     0.16081     0.16217    
 0.20256     0.28013     0.37965     0.47206     0.53352     0.55453     0.53352     0.47206     0.37965     0.28013    
 0.20256     0.16217     0.16081     0.20016     0.28085     0.38581     0.48435     0.55785     0.60407     0.62791    
 0.62846     0.61970     0.59111     0.53773     0.45668     0.35458     0.25551     0.18924     0.16715     0.18845    
 0.25342     0.35493     0.46706     0.55924     0.61581     0.63445     0.61581     0.55924     0.46706     0.35493    
 0.25342     0.18845     0.16715     0.18924     0.25551     0.35458     0.45668     0.53773     0.59111     0.61970    
 0.60417     0.59460     0.56395     0.50839     0.42701     0.32913     0.24052     0.18818     0.18104     0.21986    
 0.30377     0.41716     0.52845     0.61250     0.66164     0.67750     0.66164     0.61250     0.52845     0.41716    
 0.30377     0.21986     0.18104     0.18818     0.24052     0.32913     0.42701     0.50839     0.56395     0.59460    
 0.56117     0.55212     0.52339     0.47200     0.39782     0.31018     0.23352     0.19278     0.19727     0.24905    
 0.34367     0.45860     0.56253     0.63716     0.67973     0.69334     0.67973     0.63716     0.56253     0.45860    
 0.34367     0.24905     0.19727     0.19278     0.23352     0.31018     0.39782     0.47200     0.52339     0.55212    
 0.50020     0.49342     0.47151     0.43120     0.37107     0.29770     0.23236     0.19950     0.21061     0.26854    
 0.36557     0.47605     0.57155     0.63860     0.67657     0.68870     0.67657     0.63860     0.57155     0.47605    
 0.36557     0.26854     0.21061     0.19950     0.23236     0.29770     0.37107     0.43120     0.47151     0.49342    
 0.42545     0.42243     0.41143     0.38775     0.34694     0.29074     0.23562     0.20613     0.21712     0.27269    
 0.36441     0.46727     0.55553     0.61765     0.65312     0.66452     0.65312     0.61765     0.55553     0.46727    
 0.36441     0.27269     0.21712     0.20613     0.23562     0.29074     0.34694     0.38775     0.41143     0.42243    
 0.34795     0.34884     0.34937     0.34373     0.32441     0.28743     0.24236     0.21238     0.21622     0.26036    
 0.33866     0.43013     0.51129     0.57007     0.60444     0.61564     0.60444     0.57007     0.51129     0.43013    
 0.33866     0.26036     0.21622     0.21238     0.24236     0.28743     0.32441     0.34373     0.34937     0.34884    
 0.28282     0.28632     0.29500     0.30342     0.30313     0.28559     0.25180     0.21984     0.21145     0.23671    
 0.29321     0.36630     0.43628     0.48998     0.52269     0.53360     0.52269     0.48998     0.43628     0.36630    
 0.29321     0.23671     0.21145     0.21984     0.25180     0.28559     0.30313     0.30342     0.29500     0.28632    
 0.23852     0.24325     0.25593     0.27218     0.28482     0.28399     0.26305     0.23085     0.20887     0.21175    
 0.24084     0.28758     0.33806     0.38033     0.40765     0.41705     0.40765     0.38033     0.33806     0.28758    
 0.24084     0.21175     0.20887     0.23085     0.26305     0.28399     0.28482     0.27218     0.25593     0.24325    
 0.21355     0.21886     0.23325     0.25285     0.27223     0.28313     0.27515     0.24681     0.21415     0.19579    
 0.19778     0.21573     0.24101     0.26514     0.28206     0.28813     0.28206     0.26514     0.24101     0.21573    
 0.19778     0.19579     0.21415     0.24681     0.27515     0.28313     0.27223     0.25285     0.23325     0.21886    
 0.20403     0.20964     0.22478     0.24545     0.26737     0.28483     0.28764     0.26713     0.23025     0.19577    
 0.17555     0.16952     0.17238     0.17867     0.18425     0.18645     0.18425     0.17867     0.17238     0.16952    
 0.17555     0.19577     0.23025     0.26713     0.28764     0.28483     0.26737     0.24545     0.22478     0.20964    
 0.20929     0.21485     0.22967     0.24968     0.27134     0.29119     0.30112     0.28992     0.25637     0.21420    
 0.17867     0.15534     0.14229     0.13591     0.13330     0.13265     0.13330     0.13591     0.14229     0.15534    
 0.17867     0.21420     0.25637     0.28992     0.30112     0.29119     0.27134     0.24968     0.22967     0.21485    
 0.23153     0.23631     0.24893     0.26589     0.28480     0.30392     0.31719     0.31379     0.28853     0.24859    
 0.20701     0.17292     0.14882     0.13355     0.12527     0.12266     0.12527     0.13355     0.14882     0.17292    
 0.20701     0.24859     0.28853     0.31379     0.31719     0.30392     0.28480     0.26589     0.24893     0.23631    
 0.27251     0.27552     0.28349     0.29458     0.30825     0.32417     0.33752     0.33889     0.32269     0.29218    
 0.25535     0.21975     0.19022     0.16889     0.15621     0.15202     0.15621     0.16889     0.19022     0.21975    
 0.25535     0.29218     0.32269     0.33889     0.33752     0.32417     0.30825     0.29458     0.28349     0.27552    
 0.33052     0.33104     0.33261     0.33580     0.34230     0.35277     0.36316     0.36596     0.35697     0.33808    
 0.31343     0.28649     0.26047     0.23884     0.22462     0.21968     0.22462     0.23884     0.26047     0.28649    
 0.31343     0.33808     0.35697     0.36596     0.36316     0.35277     0.34230     0.33580     0.33261     0.33104    
 0.40051     0.39864     0.39394     0.38898     0.38710     0.38966     0.39383     0.39481     0.39049     0.38219    
 0.37135     0.35782     0.34191     0.32622     0.31468     0.31044     0.31468     0.32622     0.34191     0.35782    
 0.37135     0.38219     0.39049     0.39481     0.39383     0.38966     0.38710     0.38898     0.39394     0.39864    
 0.47682     0.47326     0.46374     0.45145     0.44024     0.43232     0.42725     0.42377     0.42183     0.42197    
 0.42293     0.42158     0.41597     0.40766     0.40044     0.39763     0.40044     0.40766     0.41597     0.42158    
 0.42293     0.42197     0.42183     0.42377     0.42725     0.43232     0.44024     0.45145     0.46374     0.47326    
 0.55230     0.54761     0.53446     0.51551     0.49449     0.47494     0.45960     0.45072     0.44976     0.45599    
 0.46547     0.47271     0.47447     0.47173     0.46804     0.46646     0.46804     0.47173     0.47447     0.47271    
 0.46547     0.45599     0.44976     0.45072     0.45960     0.47494     0.49449     0.51551     0.53446     0.54761    
 0.61490     0.60937     0.59338     0.56899     0.53983     0.51080     0.48742     0.47451     0.47425     0.48450    
 0.49924     0.51172     0.51814     0.51913     0.51791     0.51720     0.51791     0.51913     0.51814     0.51172    
 0.49924     0.48450     0.47425     0.47451     0.48742     0.51080     0.53983     0.56899     0.59338     0.60937    
 0.65276     0.64683     0.62952     0.60256     0.56948     0.53600     0.50913     0.49492     0.49555     0.50794    
 0.52541     0.54109     0.55105     0.55533     0.55637     0.55644     0.55637     0.55533     0.55105     0.54109    
 0.52541     0.50794     0.49555     0.49492     0.50913     0.53600     0.56948     0.60256     0.62952     0.64683    
 0.66273     0.65715     0.64079     0.61504     0.58311     0.55060     0.52462     0.51115     0.51224     0.52515    
 0.54400     0.56260     0.57680     0.58548     0.58971     0.59093     0.58971     0.58548     0.57680     0.56260    
 0.54400     0.52515     0.51224     0.51115     0.52462     0.55060     0.58311     0.61504     0.64079     0.65715    
 0.65000     0.64556     0.63238     0.61122     0.58439     0.55643     0.53342     0.52084     0.52139     0.53395    
 0.55434     0.57702     0.59714     0.61188     0.62052     0.62332     0.62052     0.61188     0.59714     0.57702    
 0.55434     0.53395     0.52139     0.52084     0.53342     0.55643     0.58439     0.61122     0.63238     0.64556    
 0.62332     0.62052     0.61188     0.59714     0.57702     0.55434     0.53395     0.52139     0.52084     0.53342    
 0.55643     0.58439     0.61122     0.63238     0.64556     0.65000     0.64556     0.63238     0.61122     0.58439    
 0.55643     0.53342     0.52084     0.52139     0.53395     0.55434     0.57702     0.59714     0.61188     0.62052    
 0.59093     0.58971     0.58548     0.57680     0.56260     0.54400     0.52515     0.51224     0.51115     0.52462    
 0.55060     0.58311     0.61504     0.64079     0.65715     0.66273     0.65715     0.64079     0.61504     0.58311    
 0.55060     0.52462     0.51115     0.51224     0.52515     0.54400     0.56260     0.57680     0.58548     0.58971    
 0.55644     0.55637     0.55533     0.55105     0.54109     0.52541     0.50794     0.49555     0.49492     0.50913    
 0.53600     0.56948     0.60256     0.62952     0.64683     0.65276     0.64683     0.62952     0.60256     0.56948    
 0.53600     0.50913     0.49492     0.49555     0.50794     0.52541     0.54109     0.55105     0.55533     0.55637    
 0.51720     0.51791     0.51913     0.51814     0.51172     0.49924     0.48450     0.47425     0.47451     0.48742    
 0.51080     0.53983     0.56899     0.59338     0.60937     0.61490     0.60937     0.59338     0.56899     0.53983    
 0.51080     0.48742     0.47451     0.47425     0.48450     0.49924     0.51172     0.51814     0.51913     0.51791    
 0.46646     0.46804     0.47173     0.47447     0.47271     0.46547     0.45599     0.44976     0.45072     0.45960    
 0.47494     0.49449     0.51551     0.53446     0.54761     0.55230     0.54761     0.53446     0.51551     0.49449    
 0.47494     0.45960     0.45072     0.44976     0.45599     0.46547     0.47271     0.47447     0.47173     0.46804    
 0.39763     0.40044     0.40766     0.41597     0.42158     0.42293     0.42197     0.42183     0.42377     0.42725    
 0.43232     0.44024     0.45145     0.46374     0.47326     0.47682     0.47326     0.46374     0.45145     0.44024    
 0.43232     0.42725     0.42377     0.42183     0.42197     0.42293     0.42158     0.41597     0.40766     0.40044    
 0.31044     0.31468     0.32622     0.34191     0.35782     0.37135     0.38219     0.39049     0.39481     0.39383    
 0.38966     0.38710     0.38898     0.39394     0.39864     0.40051     0.39864     0.39394     0.38898     0.38710    
 0.38966     0.39383     0.39481     0.39049     0.38219     0.37135     0.35782     0.34191     0.32622     0.31468    
 0.21968     0.22462     0.23884     0.26047     0.28649     0.31343     0.33808     0.35697     0.36596     0.36316    
 0.35277     0.34230     0.33580     0.33261     0.33104     0.33052     0.33104     0.33261     0.33580     0.34230    
 0.35277     0.36316     0.36596     0.35697     0.33808     0.31343     0.28649     0.26047     0.23884     0.22462    
 0.15202     0.15621     0.16889     0.19022     0.21975     0.25535     0.29218     0.32269     0.33889     0.33752    
 0.32417     0.30825     0.29458     0.28349     0.27552     0.27251     0.27552     0.28349     0.29458     0.30825    
 0.32417     0.33752     0.33889     0.32269     0.29218     0.25535     0.21975     0.19022     0.16889     0.15621    
 0.12266     0.12527     0.13355     0.14882     0.17292     0.20701     0.24859     0.28853     0.31379     0.31719    
 0.30392     0.28480     0.26589     0.24893     0.23631     0.23153     0.23631     0.24893     0.26589     0.28480    
 0.30392     0.31719     0.31379     0.28853     0.24859     0.20701     0.17292     0.14882     0.13355     0.12527    
 0.13265     0.13330     0.13591     0.14229     0.15534     0.17867     0.21420     0.25637     0.28992     0.30112    
 0.29119     0.27134     0.24968     0.22967     0.21485     0.20929     0.21485     0.22967     0.24968     0.27134    
 0.29119     0.30112     0.28992     0.25637     0.21420     0.17867     0.15534     0.14229     0.13591     0.13330    
 0.18645     0.18425     0.17867     0.17238     0.16952     0.17555     0.19577     0.23025     0.26713     0.28764    
 0.28483     0.26737     0.24545     0.22478     0.20964     0.20403     0.20964     0.22478     0.24545     0.26737    
 0.28483     0.28764     0.26713     0.23025     0.19577     0.17555     0.16952     0.17238     0.17867     0.18425    
 0.28813     0.28206     0.26514     0.24101     0.21573     0.19778     0.19579     0.21415     0.24681     0.27515    
 0.28313     0.27223     0.25285     0.23325     0.21886     0.21355     0.21886     0.23325     0.25285     0.27223    
 0.28313     0.27515     0.24681     0.21415     0.19579     0.19778     0.21573     0.24101     0.26514     0.28206    
 0.41705     0.40765     0.38033     0.33806     0.28758     0.24084     0.21175     0.20887     0.23085     0.26305    
 0.28399     0.28482     0.27218     0.25593     0.24325     0.23852     0.24325     0.25593     0.27218     0.28482    
 0.28399     0.26305     0.23085     0.20887     0.21175     0.24084     0.28758     0.33806     0.38033     0.40765    
 0.53360     0.52269     0.48998     0.43628     0.36630     0.29321     0.23671     0.21145     0.21984     0.25180    
 0.28559     0.30313     0.30342     0.29500     0.28632     0.28282     0.28632     0.29500     0.30342     0.30313    
 0.28559     0.25180     0.21984     0.21145     0.23671     0.29321     0.36630     0.43628     0.48998     0.52269    
 0.61564     0.60444     0.57007     0.51129     0.43013     0.33866     0.26036     0.21622     0.21238     0.24236    
 0.28743     0.32441     0.34373     0.34937     0.34884     0.34795     0.34884     0.34937     0.34373     0.32441    
 0.28743     0.24236     0.21238     0.21622     0.26036     0.33866     0.43013     0.51129     0.57007     0.60444    
 0.66452     0.65312     0.61765     0.55553     0.46727     0.36441     0.27269     0.21712     0.20613     0.23562    
 0.29074     0.34694     0.38775     0.41143     0.42243     0.42545     0.42243     0.41143     0.38775     0.34694    
 0.29074     0.23562     0.20613     0.21712     0.27269     0.36441     0.46727     0.55553     0.61765     0.65312    
 0.68870     0.67657     0.63860     0.57155     0.47605     0.36557     0.26854     0.21061     0.19950     0.23236    
 0.29770     0.37107     0.43120     0.47151     0.49342     0.50020     0.49342     0.47151     0.43120     0.37107    
 0.29770     0.23236     0.19950     0.21061     0.26854     0.36557     0.47605     0.57155     0.63860     0.67657    
 0.69334     0.67973     0.63716     0.56253     0.45860     0.34367     0.24905     0.19727     0.19278     0.23352    
 0.31018     0.39782     0.47200     0.52339     0.55212     0.56117     0.55212     0.52339     0.47200     0.39782    
 0.31018     0.23352     0.19278     0.19727     0.24905     0.34367     0.45860     0.56253     0.63716     0.67973    
 0.67750     0.66164     0.61250     0.52845     0.41716     0.30377     0.21986     0.18104     0.18818     0.24052    
 0.32913     0.42701     0.50839     0.56395     0.59460     0.60417     0.59460     0.56395     0.50839     0.42701    
 0.32913     0.24052     0.18818     0.18104     0.21986     0.30377     0.41716     0.52845     0.61250     0.66164    
 0.63445     0.61581     0.55924     0.46706     0.35493     0.25342     0.18845     0.16715     0.18924     0.25551    
 0.35458     0.45668     0.53773     0.59111     0.61970     0.62846     0.61970     0.59111     0.53773     0.45668    
 0.35458     0.25551     0.18924     0.16715     0.18845     0.25342     0.35493     0.46706     0.55924     0.61581    
 0.55453     0.53352     0.47206     0.37965     0.28013     0.20256     0.16217     0.16081     0.20016     0.28085    
 0.38581     0.48435     0.55785     0.60407     0.62791     0.63504     0.62791     0.60407     0.55785     0.48435    
 0.38581     0.28085     0.20016     0.16081     0.16217     0.20256     0.28013     0.37965     0.47206     0.53352    
 0.43456     0.41389     0.35673     0.27964     0.20795     0.16146     0.14691     0.16663     0.22490     0.31783    
 0.42158     0.50914     0.56985     0.60583     0.62343     0.62851     0.62343     0.60583     0.56985     0.50914    
 0.42158     0.31783     0.22490     0.16663     0.14691     0.16146     0.20795     0.27964     0.35673     0.41389    
 0.29561     0.28011     0.23994     0.19174     0.15381     0.13712     0.14685     0.18860     0.26558     0.36526    
 0.46082     0.53332     0.57962     0.60492     0.61629     0.61936     0.61629     0.60492     0.57962     0.53332    
 0.46082     0.36526     0.26558     0.18860     0.14685     0.13712     0.15381     0.19174     0.23994     0.28011    
 0.18079     0.17294     0.15388     0.13423     0.12454     0.13251     0.16524     0.22909     0.32059     0.41965    
 0.50321     0.56121     0.59546     0.61257     0.61945     0.62113     0.61945     0.61257     0.59546     0.56121    
 0.50321     0.41965     0.32059     0.22909     0.16524     0.13251     0.12454     0.13423     0.15388     0.17294    
 0.11406     0.11202     0.10825     0.10843     0.11947     0.14887     0.20404     0.28659     0.38463     0.47709    
 0.54865     0.59579     0.62266     0.63575     0.64098     0.64227     0.64098     0.63575     0.62266     0.59579    
 0.54865     0.47709     0.38463     0.28659     0.20404     0.14887     0.11947     0.10843     0.10825     0.11202    
 0.86924E-01 0.88331E-01 0.93977E-01 0.10790     0.13623     0.18597     0.26077     0.35451     0.45107     0.53411    
 0.59565     0.63608     0.66003     0.67289     0.67894     0.68069     0.67894     0.67289     0.66003     0.63608    
 0.59565     0.53411     0.45107     0.35451     0.26077     0.18597     0.13623     0.10790     0.93977E-01 0.88331E-01
 0.83960E-01 0.87798E-01 0.10064     0.12644     0.17093     0.23851     0.32661     0.42329     0.51328     0.58649    
 0.64037     0.67722     0.70106     0.71563     0.72353     0.72605     0.72353     0.71563     0.70106     0.67722    
 0.64037     0.58649     0.51328     0.42329     0.32661     0.23851     0.17093     0.12644     0.10064     0.87798E-01
 0.94588E-01 0.10066     0.12027     0.15718     0.21564     0.29592     0.38992     0.48346     0.56478     0.62932    
 0.67787     0.71317     0.73794     0.75432     0.76370     0.76677     0.76370     0.75432     0.73794     0.71317    
 0.67787     0.62932     0.56478     0.48346     0.38992     0.29592     0.21564     0.15718     0.12027     0.10066    
 0.11133     0.11953     0.14538     0.19178     0.26036     0.34716     0.44087     0.52814     0.60123     0.65937    
 0.70480     0.73965     0.76530     0.78270     0.79271     0.79596     0.79271     0.78270     0.76530     0.73965    
 0.70480     0.65937     0.60123     0.52814     0.44087     0.34716     0.26036     0.19178     0.14538     0.11953    
 0.12728     0.13716     0.16774     0.22059     0.29456     0.38280     0.47325     0.55458     0.62197     0.67643    
 0.72042     0.75527     0.78137     0.79909     0.80916     0.81241     0.80916     0.79909     0.78137     0.75527    
 0.72042     0.67643     0.62197     0.55458     0.47325     0.38280     0.29456     0.22059     0.16774     0.13716    
 0.13415     0.14469     0.17708     0.23219     0.30764     0.39564     0.48426     0.56318     0.62856     0.68186    
 0.72546     0.76036     0.78658     0.80433     0.81437     0.81758     0.81437     0.80433     0.78658     0.76036    
 0.72546     0.68186     0.62856     0.56318     0.48426     0.39564     0.30764     0.23219     0.17708     0.14469    
 0.12728     0.13716     0.16774     0.22059     0.29456     0.38280     0.47325     0.55458     0.62197     0.67643    
 0.72042     0.75527     0.78137     0.79909     0.80916     0.81241     0.80916     0.79909     0.78137     0.75527    
 0.72042     0.67643     0.62197     0.55458     0.47325     0.38280     0.29456     0.22059     0.16774     0.13716    
 0.11133     0.11953     0.14538     0.19178     0.26036     0.34716     0.44087     0.52814     0.60123     0.65937    
 0.70480     0.73965     0.76530     0.78270     0.79271     0.79596     0.79271     0.78270     0.76530     0.73965    
 0.70480     0.65937     0.60123     0.52814     0.44087     0.34716     0.26036     0.19178     0.14538     0.11953    
 0.94588E-01 0.10066     0.12027     0.15718     0.21564     0.29592     0.38992     0.48346     0.56478     0.62932    
 0.67787     0.71317     0.73794     0.75432     0.76370     0.76677     0.76370     0.75432     0.73794     0.71317    
 0.67787     0.62932     0.56478     0.48346     0.38992     0.29592     0.21564     0.15718     0.12027     0.10066    
 0.83960E-01 0.87798E-01 0.10064     0.12644     0.17093     0.23851     0.32661     0.42329     0.51328     0.58649    
 0.64037     0.67722     0.70106     0.71563     0.72353     0.72605     0.72353     0.71563     0.70106     0.67722    
 0.64037     0.58649     0.51328     0.42329     0.32661     0.23851     0.17093     0.12644     0.10064     0.87798E-01
 0.86924E-01 0.88331E-01 0.93977E-01 0.10790     0.13623     0.18597     0.26077     0.35451     0.45107     0.53411    
 0.59565     0.63608     0.66003     0.67289     0.67894     0.68069     0.67894     0.67289     0.66003     0.63608    
 0.59565     0.53411     0.45107     0.35451     0.26077     0.18597     0.13623     0.10790     0.93977E-01 0.88331E-01
 0.11406     0.11202     0.10825     0.10843     0.11947     0.14887     0.20404     0.28659     0.38463     0.47709    
 0.54865     0.59579     0.62266     0.63575     0.64098     0.64227     0.64098     0.63575     0.62266     0.59579    
 0.54865     0.47709     0.38463     0.28659     0.20404     0.14887     0.11947     0.10843     0.10825     0.11202    
 0.18079     0.17294     0.15388     0.13423     0.12454     0.13251     0.16524     0.22909     0.32059     0.41965    
 0.50321     0.56121     0.59546     0.61257     0.61945     0.62113     0.61945     0.61257     0.59546     0.56121    
 0.50321     0.41965     0.32059     0.22909     0.16524     0.13251     0.12454     0.13423     0.15388     0.17294    
 0.29561     0.28011     0.23994     0.19174     0.15381     0.13712     0.14685     0.18860     0.26558     0.36526    
 0.46082     0.53332     0.57962     0.60492     0.61629     0.61936     0.61629     0.60492     0.57962     0.53332    
 0.46082     0.36526     0.26558     0.18860     0.14685     0.13712     0.15381     0.19174     0.23994     0.28011    
 0.43456     0.41389     0.35673     0.27964     0.20795     0.16146     0.14691     0.16663     0.22490     0.31783    
 0.42158     0.50914     0.56985     0.60583     0.62343     0.62851     0.62343     0.60583     0.56985     0.50914    
 0.42158     0.31783     0.22490     0.16663     0.14691     0.16146     0.20795     0.27964     0.35673     0.41389    
 0.55453     0.53352     0.47206     0.37965     0.28013     0.20256     0.16217     0.16081     0.20016     0.28085    
 0.38581     0.48435     0.55785     0.60407     0.62791     0.63504     0.62791     0.60407     0.55785     0.48435    
 0.38581     0.28085     0.20016     0.16081     0.16217     0.20256     0.28013     0.37965     0.47206     0.53352    
 0.63445     0.61581     0.55924     0.46706     0.35493     0.25342     0.18845     0.16715     0.18924     0.25551    
 0.35458     0.45668     0.53773     0.59111     0.61970     0.62846     0.61970     0.59111     0.53773     0.45668    
 0.35458     0.25551     0.18924     0.16715     0.18845     0.25342     0.35493     0.46706     0.55924     0.61581    
 0.67750     0.66164     0.61250     0.52845     0.41716     0.30377     0.21986     0.18104     0.18818     0.24052    
 0.32913     0.42701     0.50839     0.56395     0.59460     0.60417     0.59460     0.56395     0.50839     0.42701    
 0.32913     0.24052     0.18818     0.18104     0.21986     0.30377     0.41716     0.52845     0.61250     0.66164    
 0.69334     0.67973     0.63716     0.56253     0.45860     0.34367     0.24905     0.19727     0.19278     0.23352    
 0.31018     0.39782     0.47200     0.52339     0.55212     0.56117     0.55212     0.52339     0.47200     0.39782    
 0.31018     0.23352     0.19278     0.19727     0.24905     0.34367     0.45860     0.56253     0.63716     0.67973    
 0.68870     0.67657     0.63860     0.57155     0.47605     0.36557     0.26854     0.21061     0.19950     0.23236    
 0.29770     0.37107     0.43120     0.47151     0.49342     0.50020     0.49342     0.47151     0.43120     0.37107    
 0.29770     0.23236     0.19950     0.21061     0.26854     0.36557     0.47605     0.57155     0.63860     0.67657    
 0.66452     0.65312     0.61765     0.55553     0.46727     0.36441     0.27269     0.21712     0.20613     0.23562    
 0.29074     0.34694     0.38775     0.41143     0.42243     0.42545     0.42243     0.41143     0.38775     0.34694    
 0.29074     0.23562     0.20613     0.21712     0.27269     0.36441     0.46727     0.55553     0.61765     0.65312    
 0.61564     0.60444     0.57007     0.51129     0.43013     0.33866     0.26036     0.21622     0.21238     0.24236    
 0.28743     0.32441     0.34373     0.34937     0.34884     0.34795     0.34884     0.34937     0.34373     0.32441    
 0.28743     0.24236     0.21238     0.21622     0.26036     0.33866     0.43013     0.51129     0.57007     0.60444    
 0.53360     0.52269     0.48998     0.43628     0.36630     0.29321     0.23671     0.21145     0.21984     0.25180    