  COHP#       atomMU       atomNU     distance     translation      ICOHP (at) eF   for spin  1
      1          Si1          Fe9      2.26354       0   0   0           -1.53908 
      2          Si2         Fe10      2.26354       0   0   0           -1.54765 
      3          Si3         Fe11      2.26354       0   0   0           -1.53672 
      4          Si4         Fe12      2.26354       0   0   0           -1.55687 
      5          Si5         Fe10      2.36197       0   0  -1           -0.98992 
      6          Si5         Fe10      2.36197       0   0   0           -0.98766 
      7          Si5         Fe11      2.37040      -1   0   0           -0.96414 
      8          Si5         Fe11      2.37040       0   0   0           -0.96375 
      9          Si6          Fe9      2.36197       0   0   0           -0.98531 
     10          Si6          Fe9      2.36197       0   0   1           -0.98554 
     11          Si6         Fe12      2.37040      -1   0   0           -0.96803 
     12          Si6         Fe12      2.37040       0   0   0           -0.96703 
     13          Si7          Fe9      2.37040       0   0   0           -0.96012 
     14          Si7          Fe9      2.37040       1   0   0           -0.96416 
     15          Si7         Fe12      2.36197       0   0  -1           -0.99241 
     16          Si7         Fe12      2.36197       0   0   0           -0.99976 
     17          Si8         Fe10      2.37040       0   0   0           -0.96720 
     18          Si8         Fe10      2.37040       1   0   0           -0.96281 
     19          Si8         Fe11      2.36197       0   0   0           -0.99083 
     20          Si8         Fe11      2.36197       0   0   1           -0.98519 
     21          Si1         Ce15      3.23206      -1  -1   0           -0.55185 
     22          Si1         Ce15      3.23206       0  -1   0           -0.55462 
     23          Si1         Ce16      3.07708      -1   0  -1           -0.71211 
     24          Si1         Ce16      3.07708       0   0  -1           -0.71167 
     25          Si1         Ce16      3.07708      -1   0   0           -0.71330 
     26          Si1         Ce16      3.07708       0   0   0           -0.71089 
     27          Si2         Ce15      3.07708      -1   0   0           -0.71386 
     28          Si2         Ce15      3.07708       0   0   0           -0.71404 
     29          Si2         Ce15      3.07708      -1   0   1           -0.71568 
     30          Si2         Ce15      3.07708       0   0   1           -0.71571 
     31          Si2         Ce16      3.23206      -1   1   0           -0.55913 
     32          Si2         Ce16      3.23206       0   1   0           -0.55928 
     33          Si3         Ce13      3.23206       0   0   0           -0.55683 
     34          Si3         Ce13      3.23206       1   0   0           -0.55837 
     35          Si3         Ce14      3.07708       0   0  -1           -0.71695 
     36          Si3         Ce14      3.07708       1   0  -1           -0.71674 
     37          Si3         Ce14      3.07708       0   0   0           -0.72131 
     38          Si3         Ce14      3.07708       1   0   0           -0.72145 
     39          Si4         Ce13      3.07708       0   0   0           -0.71607 
     40          Si4         Ce13      3.07708       1   0   0           -0.71551 
     41          Si4         Ce13      3.07708       0   0   1           -0.71281 
     42          Si4         Ce13      3.07708       1   0   1           -0.71614 
     43          Si4         Ce14      3.23206       0   0   0           -0.55103 
     44          Si4         Ce14      3.23206       1   0   0           -0.54989 
     45          Si5         Ce14      3.07354       0   0  -1           -0.69764 
     46          Si5         Ce14      3.07354       0   0   0           -0.69876 
     47          Si5         Ce15      3.08813      -1   0   0           -0.72565 
     48          Si5         Ce15      3.08813       0   0   0           -0.72446 
     49          Si6         Ce13      3.07354       0   0   0           -0.68815 
     50          Si6         Ce13      3.07354       0   0   1           -0.69109 
     51          Si6         Ce16      3.08813      -1   0   0           -0.72299 
     52          Si6         Ce16      3.08813       0   0   0           -0.72313 
     53          Si7         Ce13      3.08813       0   0   0           -0.72458 
     54          Si7         Ce13      3.08813       1   0   0           -0.72583 
     55          Si7         Ce16      3.07354       0   0  -1           -0.68922 
     56          Si7         Ce16      3.07354       0   0   0           -0.68808 
     57          Si8         Ce14      3.08813       0   0   0           -0.72466 
     58          Si8         Ce14      3.08813       1   0   0           -0.72385 
     59          Si8         Ce15      3.07354       0   0   0           -0.69054 
     60          Si8         Ce15      3.07354       0   0   1           -0.69371 
     61          Fe9         Ce16      3.04370      -1   0  -1           -0.58829 
     62          Fe9         Ce16      3.04370       0   0  -1           -0.58934 
     63          Fe9         Ce16      3.04370      -1   0   0           -0.58554 
     64          Fe9         Ce16      3.04370       0   0   0           -0.59028 
     65         Fe10         Ce15      3.04370      -1   0   0           -0.59153 
     66         Fe10         Ce15      3.04370       0   0   0           -0.59033 
     67         Fe10         Ce15      3.04370      -1   0   1           -0.58784 
     68         Fe10         Ce15      3.04370       0   0   1           -0.58638 
     69         Fe11         Ce14      3.04370       0   0  -1           -0.59166 
     70         Fe11         Ce14      3.04370       1   0  -1           -0.59037 
     71         Fe11         Ce14      3.04370       0   0   0           -0.58533 
     72         Fe11         Ce14      3.04370       1   0   0           -0.58633 
     73         Fe12         Ce13      3.04370       0   0   0           -0.59992 
     74         Fe12         Ce13      3.04370       1   0   0           -0.59428 
     75         Fe12         Ce13      3.04370       0   0   1           -0.59812 
     76         Fe12         Ce13      3.04370       1   0   1           -0.59723 
     77          Si1          Si2      2.41465       0  -1  -1           -2.13416 
     78          Si1          Si2      2.41465       0  -1   0           -2.13743 
     79          Si3          Si4      2.41465       0   0  -1           -2.15879 
     80          Si3          Si4      2.41465       0   0   0           -2.14449 
